----- GAMESS execution script -----
This job is running on host stochastic.cem.msu.edu
under operating system Linux at Thu Feb 25 15:11:26 EST 2021
Available scratch disk space (Kbyte units) at beginning of the job is
Filesystem      1K-blocks       Used Available Use% Mounted on
/dev/sdb1      3904037360 2983576988 920460372  77% /scratch

 Distributed Data Interface kickoff program.
 Initiating 1 compute processes on 1 nodes to run the following command:
 /home2/gururang/CC_PACKAGE/gamess/gamess.00.x h2o-2Re 

          ******************************************************
          *         GAMESS VERSION = 25 MAR 2010 (R1)          *
          *             FROM IOWA STATE UNIVERSITY             *
          * M.W.SCHMIDT, K.K.BALDRIDGE, J.A.BOATZ, S.T.ELBERT, *
          *   M.S.GORDON, J.H.JENSEN, S.KOSEKI, N.MATSUNAGA,   *
          *          K.A.NGUYEN, S.J.SU, T.L.WINDUS,           *
          *       TOGETHER WITH M.DUPUIS, J.A.MONTGOMERY       *
          *         J.COMPUT.CHEM.  14, 1347-1363(1993)        *
          **************** 64 BIT LINUX VERSION ****************

  SINCE 1993, STUDENTS AND POSTDOCS WORKING AT IOWA STATE UNIVERSITY
  AND ALSO IN THEIR VARIOUS JOBS AFTER LEAVING ISU HAVE MADE IMPORTANT
  CONTRIBUTIONS TO THE CODE:
     IVANA ADAMOVIC, CHRISTINE AIKENS, YURI ALEXEEV, POOJA ARORA,
     ANDREY ASADCHEV, ROB BELL, PRADIPTA BANDYOPADHYAY, JONATHAN BENTZ,
     BRETT BODE, GALINA CHABAN, WEI CHEN, CHEOL HO CHOI, PAUL DAY, TIM DUDLEY,
     DMITRI FEDOROV, GRAHAM FLETCHER, MARK FREITAG, KURT GLAESEMANN, DAN KEMP,
     GRANT MERRILL, JONATHAN MULLIN, TAKESHI NAGATA, SEAN NEDD,
     HEATHER NETZLOFF, BOSILJKA NJEGIC, RYAN OLSON, MIKE PAK, JIM SHOEMAKER,
     LYUDMILA SLIPCHENKO, SAROM SOK, JIE SONG, TETSUYA TAKETSUGU,
     SIMON WEBB, SOOHAENG YOO, FEDERICO ZAHARIEV

  ADDITIONAL CODE HAS BEEN PROVIDED BY COLLABORATORS IN OTHER GROUPS:
     IOWA STATE UNIVERSITY: JOE IVANIC, LAIMUTIS BYTAUTAS,
          KLAUS RUEDENBERG
     UNIVERSITY OF TOKYO: KIMIHIKO HIRAO, TAKAHITO NAKAJIMA,
          TAKAO TSUNEDA, MUNEAKI KAMIYA, SUSUMU YANAGISAWA,
          KIYOSHI YAGI, MAHITO CHIBA, SEIKEN TOKURA, NAOAKI KAWAKAMI
     UNIVERSITY OF AARHUS: FRANK JENSEN
     UNIVERSITY OF IOWA: VISVALDAS KAIRYS, HUI LI
     NATIONAL INST. OF STANDARDS AND TECHNOLOGY: WALT STEVENS, DAVID GARMER
     UNIVERSITY OF PISA: BENEDETTA MENNUCCI, JACOPO TOMASI
     UNIVERSITY OF MEMPHIS: HENRY KURTZ, PRAKASHAN KORAMBATH
     UNIVERSITY OF ALBERTA: MARIUSZ KLOBUKOWSKI
     UNIVERSITY OF NEW ENGLAND: MARK SPACKMAN
     MIE UNIVERSITY: HIROAKI UMEDA
     MICHIGAN STATE UNIVERSITY:
          KAROL KOWALSKI, MARTA WLOCH, JEFFREY GOUR, JESSE LUTZ, PIOTR PIECUCH
     UNIVERSITY OF SILESIA: MONIKA MUSIAL, STANISLAW KUCHARSKI
     FACULTES UNIVERSITAIRES NOTRE-DAME DE LA PAIX:
          OLIVIER QUINET, BENOIT CHAMPAGNE
     UNIVERSITY OF CALIFORNIA - SANTA BARBARA: BERNARD KIRTMAN
     INSTITUTE FOR MOLECULAR SCIENCE: KAZUYA ISHIMURA AND SHIGERU NAGASE
     UNIVERSITY OF NOTRE DAME: DAN CHIPMAN
     KYUSHU UNIVERSITY:
          HARUYUKI NAKANO,
          FENG LONG GU, JACEK KORCHOWIEC, MARCIN MAKOWSKI, AND YURIKO AOKI,
          HIROTOSHI MORI AND EISAKU MIYOSHI
     PENNSYLVANIA STATE UNIVERSITY:
          TZVETELIN IORDANOV, CHET SWALINA, JONATHAN SKONE,
          SHARON HAMMES-SCHIFFER
     WASEDA UNIVERSITY:
          MASATO KOBAYASHI, TOMOKO AKAMA, HIROMI NAKAI
     UNIVERSITY OF NEBRASKA:
          PEIFENG SU, DEJUN SI, YALI WANG, HUI LI

 EXECUTION OF GAMESS BEGUN Thu Feb 25 15:11:27 2021

            ECHO OF THE FIRST FEW INPUT CARDS -
 INPUT CARD> $CONTRL SCFTYP=ROHF RUNTYP=ENERGY UNITS=BOHR  CCTYP=CCSD ISPHER=1 $END         
 INPUT CARD> $SYSTEM MWORDS=200 $END                                                        
 INPUT CARD> $SCF NCONV=1.0d-8 DIIS=.true. $end                                             
 INPUT CARD> $CCINP NFZV=0 NCORE=0 $END                                                     
 INPUT CARD> $DATA                                                                          
 INPUT CARD>H2O_Re                                                                          
 INPUT CARD>cnv 2                                                                           
 INPUT CARD>                                                                                
 INPUT CARD>HYDROGEN           1.0      0.0000000000      3.030526      -2.117796           
 INPUT CARD>	S   3                                                                          
 INPUT CARD>	1        19.240600          0.032828                                           
 INPUT CARD>	2         2.899200          0.231208                                           
 INPUT CARD>	3         0.653400          0.817238                                           
 INPUT CARD>	S   1                                                                          
 INPUT CARD>	1         0.177600          1.000000                                           
 INPUT CARD>                                                                                
 INPUT CARD>OXYGEN	    8.0      0.0      0.0     -0.0180                                    
 INPUT CARD>	S   6                                                                          
 INPUT CARD>	1      7816.540000          0.002031                                           
 INPUT CARD>	2      1175.820000          0.015436                                           
 INPUT CARD>	3       273.188000          0.073771                                           
 INPUT CARD>	4        81.169600          0.247606                                           
 INPUT CARD>	5        27.183600          0.611832                                           
 INPUT CARD>	6         3.413600          0.241205                                           
 INPUT CARD>	S   1                                                                          
 INPUT CARD>	1         9.532200          1.000000                                           
 INPUT CARD>	S   1                                                                          
 INPUT CARD>	1         0.939800          1.000000                                           
 INPUT CARD>	S   1                                                                          
 INPUT CARD>	1         0.284600          1.000000                                           
 INPUT CARD>	P   4                                                                          
 INPUT CARD>	1        35.183200          0.019580                                           
 INPUT CARD>	2         7.904000          0.124189                                           
 INPUT CARD>	3         2.305100          0.394727                                           
 INPUT CARD>	4         0.717100          0.627375                                           
 INPUT CARD>	P   1                                                                          
 INPUT CARD>	1         0.213700          1.000000                                           
 INPUT CARD>                                                                                
 INPUT CARD> $END                                                                           
 INPUT CARD>                                                                                
  200000000 WORDS OF MEMORY AVAILABLE


     RUN TITLE
     ---------
 H2O_Re                                                                          

 THE POINT GROUP OF THE MOLECULE IS CNV     
 THE ORDER OF THE PRINCIPAL AXIS IS     2
 *** WARNING! ATOM   1 SHELL    1 TYPE S HAS NORMALIZATION   1.00000234

 ATOM      ATOMIC                      COORDINATES (BOHR)
           CHARGE         X                   Y                   Z
 HYDROGEN    1.0    -0.0000000000       -3.0305260000       -2.1177960000
 HYDROGEN    1.0     0.0000000000        3.0305260000       -2.1177960000
 OXYGEN	     8.0     0.0000000000        0.0000000000       -0.0180000000

          INTERNUCLEAR DISTANCES (ANGS.)
          ------------------------------

                1 HYDR       2 HYDR       3 OXYG  

   1 HYDR    0.0000000    3.2073708    1.9510236 *
   2 HYDR    3.2073708    0.0000000    1.9510236 *
   3 OXYG    1.9510236 *  1.9510236 *  0.0000000  

  * ... LESS THAN  3.000


     ATOMIC BASIS SET
     ----------------
 THE CONTRACTED PRIMITIVE FUNCTIONS HAVE BEEN UNNORMALIZED
 THE CONTRACTED BASIS FUNCTIONS ARE NOW NORMALIZED TO UNITY

  SHELL TYPE  PRIMITIVE        EXPONENT          CONTRACTION COEFFICIENT(S)

 HYDROGEN  

      3   S       1            19.2406000    0.032828076968
      3   S       2             2.8992000    0.231208542086
      3   S       3             0.6534000    0.817239916083

      4   S       4             0.1776000    1.000000000000

 OXYGEN	   

      5   S       5          7816.5400000    0.002030998165
      5   S       6          1175.8200000    0.015435986053
      5   S       7           273.1880000    0.073770933345
      5   S       8            81.1696000    0.247605776277
      5   S       9            27.1836000    0.611831447183
      5   S      10             3.4136000    0.241204782061

      6   S      11             9.5322000    1.000000000000

      7   S      12             0.9398000    1.000000000000

      8   S      13             0.2846000    1.000000000000

      9   P      14            35.1832000    0.019579982520
      9   P      15             7.9040000    0.124188889130
      9   P      16             2.3051000    0.394726647606
      9   P      17             0.7171000    0.627374439909

     10   P      18             0.2137000    1.000000000000

 TOTAL NUMBER OF BASIS SET SHELLS             =   10
 NUMBER OF CARTESIAN GAUSSIAN BASIS FUNCTIONS =   14
 NOTE: THIS RUN WILL RESTRICT THE MO VARIATION SPACE TO SPHERICAL HARMONICS.
 THE NUMBER OF ORBITALS KEPT IN THE VARIATIONAL SPACE WILL BE PRINTED LATER.
 NUMBER OF ELECTRONS                          =   10
 CHARGE OF MOLECULE                           =    0
 SPIN MULTIPLICITY                            =    1
 NUMBER OF OCCUPIED ORBITALS (ALPHA)          =    5
 NUMBER OF OCCUPIED ORBITALS (BETA )          =    5
 TOTAL NUMBER OF ATOMS                        =    3
 THE NUCLEAR REPULSION ENERGY IS        4.5046771148

     $CONTRL OPTIONS
     ---------------
 SCFTYP=ROHF         RUNTYP=ENERGY       EXETYP=RUN     
 MPLEVL=       0     CITYP =NONE         CCTYP =CCSD         VBTYP =NONE    
 DFTTYP=NONE         TDDFT =NONE    
 MULT  =       1     ICHARG=       0     NZVAR =       0     COORD =UNIQUE  
 PP    =NONE         RELWFN=NONE         LOCAL =NONE         NUMGRD=       F
 ISPHER=       1     NOSYM =       0     MAXIT =      30     UNITS =BOHR    
 PLTORB=       F     MOLPLT=       F     AIMPAC=       F     FRIEND=        
 NPRINT=       7     IREST =       0     GEOM  =INPUT   
 NORMF =       0     NORMP =       0     ITOL  =      20     ICUT  =       9
 INTTYP=BEST         GRDTYP=BEST         QMTTOL= 1.0E-06

     $SYSTEM OPTIONS
     ---------------
  REPLICATED MEMORY=   200000000 WORDS (ON EVERY NODE).
 DISTRIBUTED MEMDDI=           0 MILLION WORDS IN AGGREGATE,
 MEMDDI DISTRIBUTED OVER   1 PROCESSORS IS           0 WORDS/PROCESSOR.
 TOTAL MEMORY REQUESTED ON EACH PROCESSOR=   200000000 WORDS.
 TIMLIM=      525600.00 MINUTES, OR     365.0 DAYS.
 PARALL= F  BALTYP=  DLB     KDIAG=    0  COREFL= F

          ----------------
          PROPERTIES INPUT
          ----------------

     MOMENTS            FIELD           POTENTIAL          DENSITY
 IEMOM =       1   IEFLD =       0   IEPOT =       0   IEDEN =       0
 WHERE =COMASS     WHERE =NUCLEI     WHERE =NUCLEI     WHERE =NUCLEI  
 OUTPUT=BOTH       OUTPUT=BOTH       OUTPUT=PUNCH      OUTPUT=BOTH    
 IEMINT=       0   IEFINT=       0                     IEDINT=       0
                                                       MORB  =       0
          EXTRAPOLATION IN EFFECT
          DIIS IN EFFECT
 ORBITAL PRINTING OPTION: NPREO=     1    14     2     1

     -------------------------------
     INTEGRAL TRANSFORMATION OPTIONS
     -------------------------------
     NWORD  =         0     CUTOFF = 1.0E-09
     MPTRAN =         0     DIRTRF =       F
     AOINTS =DUP     

          ----------------------
          INTEGRAL INPUT OPTIONS
          ----------------------
 NOPK  =       1 NORDER=       0 SCHWRZ=       F

     ------------------------------------------
     THE POINT GROUP IS CNV, NAXIS= 2, ORDER= 4
     ------------------------------------------

 -- VARIATIONAL SPACE WILL BE RESTRICTED TO PURE SPHERICAL HARMONICS ONLY --
 AFTER EXCLUDING CONTAMINANT COMBINATIONS FROM THE CARTESIAN GAUSSIAN BASIS
 SET, THE NUMBER OF SPHERICAL HARMONICS KEPT IN THE VARIATION SPACE IS   14

     DIMENSIONS OF THE SYMMETRY SUBSPACES ARE
 A1  =    8     A2  =    0     B1  =    2     B2  =    4

 ..... DONE SETTING UP THE RUN .....
 STEP CPU TIME =     0.00 TOTAL CPU TIME =        0.0 (    0.0 MIN)
 TOTAL WALL CLOCK TIME=        0.0 SECONDS, CPU UTILIZATION IS 100.00%

          ********************
          1 ELECTRON INTEGRALS
          ********************
 ...... END OF ONE-ELECTRON INTEGRALS ......
 STEP CPU TIME =     0.00 TOTAL CPU TIME =        0.0 (    0.0 MIN)
 TOTAL WALL CLOCK TIME=        0.0 SECONDS, CPU UTILIZATION IS 100.00%

          -------------
          GUESS OPTIONS
          -------------
          GUESS =HUCKEL            NORB  =       0          NORDER=       0
          MIX   =       F          PRTMO =       F          PUNMO =       F
          TOLZ  = 1.0E-08          TOLE  = 1.0E-05
          SYMDEN=       F          PURIFY=       F

 INITIAL GUESS ORBITALS GENERATED BY HUCKEL   ROUTINE.
 HUCKEL GUESS REQUIRES      3745 WORDS.

 SYMMETRIES FOR INITIAL GUESS ORBITALS FOLLOW.  ALPHA SET(S).
     5 ORBITALS ARE OCCUPIED (    1 CORE ORBITALS).
     2=A1       3=B2       4=A1       5=B1       6=A1       7=B2       8=A1  
     9=A1      10=A1      11=A1      12=B1      13=B2      14=B2  

 SYMMETRIES FOR INITIAL GUESS ORBITALS FOLLOW.   BETA SET(S).
     5 ORBITALS ARE OCCUPIED (    1 CORE ORBITALS).
     2=A1       3=B2       4=A1       5=B1       6=A1       7=B2       8=A1  
     9=A1      10=A1      11=A1      12=B1      13=B2      14=B2  
 ...... END OF INITIAL ORBITAL SELECTION ......
 STEP CPU TIME =     0.00 TOTAL CPU TIME =        0.0 (    0.0 MIN)
 TOTAL WALL CLOCK TIME=        0.0 SECONDS, CPU UTILIZATION IS 100.00%

                    ----------------------
                    AO INTEGRAL TECHNOLOGY
                    ----------------------
     S,P,L SHELL ROTATED AXIS INTEGRALS, REPROGRAMMED BY
        KAZUYA ISHIMURA (IMS) AND JOSE SIERRA (SYNSTAR).
     S,P,D,L SHELL ROTATED AXIS INTEGRALS PROGRAMMED BY
        KAZUYA ISHIMURA (INSTITUTE FOR MOLECULAR SCIENCE).
     S,P,D,F,G SHELL TO TOTAL QUARTET ANGULAR MOMENTUM SUM 5,
        ERIC PROGRAM BY GRAHAM FLETCHER (ELORET AND NASA ADVANCED
        SUPERCOMPUTING DIVISION, AMES RESEARCH CENTER).
     S,P,D,F,G,L SHELL GENERAL RYS QUADRATURE PROGRAMMED BY
        MICHEL DUPUIS (PACIFIC NORTHWEST NATIONAL LABORATORY).

          --------------------
          2 ELECTRON INTEGRALS
          --------------------

 THE -PK- OPTION IS OFF, THE INTEGRALS ARE NOT IN SUPERMATRIX FORM.
 STORING   15000 INTEGRALS/RECORD ON DISK, USING 12 BYTES/INTEGRAL.
 TWO ELECTRON INTEGRAL EVALUATION REQUIRES   89411 WORDS OF MEMORY.
 II,JST,KST,LST =  1  1  1  1 NREC =         1 INTLOC =    1
 II,JST,KST,LST =  2  1  1  1 NREC =         1 INTLOC =    1
 II,JST,KST,LST =  3  1  1  1 NREC =         1 INTLOC =    1
 II,JST,KST,LST =  4  1  1  1 NREC =         1 INTLOC =    4
 II,JST,KST,LST =  5  1  1  1 NREC =         1 INTLOC =   31
 II,JST,KST,LST =  6  1  1  1 NREC =         1 INTLOC =   65
 II,JST,KST,LST =  7  1  1  1 NREC =         1 INTLOC =  125
 II,JST,KST,LST =  8  1  1  1 NREC =         1 INTLOC =  224
 II,JST,KST,LST =  9  1  1  1 NREC =         1 INTLOC =  376
 II,JST,KST,LST = 10  1  1  1 NREC =         1 INTLOC =  835
 TOTAL NUMBER OF NONZERO TWO-ELECTRON INTEGRALS =                1710
          1 INTEGRAL RECORDS WERE STORED ON DISK FILE  8.
  ...... END OF TWO-ELECTRON INTEGRALS .....
 STEP CPU TIME =     0.01 TOTAL CPU TIME =        0.0 (    0.0 MIN)
 TOTAL WALL CLOCK TIME=        0.0 SECONDS, CPU UTILIZATION IS  50.00%

          ---------------------------
                 ROHF SCF CALCULATION
          ---------------------------

     NUCLEAR ENERGY =         4.5046771148
     MAXIT = 30     NPUNCH=  2     MULT=  1
     EXTRAP=T  DAMP=F  SHIFT=F  RSTRCT=F  DIIS=T  SOSCF=F
     DENSITY MATRIX CONV=  1.00E-06
     ROHF CANONICALIZATION PARAMETERS
             C-C     O-O     V-V
     ALPHA -0.5000  0.5000  1.5000
     BETA   1.5000  0.5000 -0.5000
     MEMORY REQUIRED FOR UHF/ROHF ITERS=     32639 WORDS.

 ITER EX      TOTAL ENERGY        E CHANGE  DENSITY CHANGE    DIIS ERROR
   1  0      -75.2533716385   -75.2533716385   0.762180199   1.245321990
   2  1      -75.1416430548     0.1117285837   0.957460577   0.716459919
   3  2      -74.7774865638     0.3641564910   1.191726334   0.798189117
   4  3      -74.0521183479     0.7253682159   1.655849645   1.334090928
   5  0      -73.5931206636     0.4589976843   0.988314165   1.148543109
          * * *   INITIATING DIIS PROCEDURE   * * *
   6  1      -75.5510636267    -1.9579429631   0.319409224   0.171181233
   7  2      -75.4988483653     0.0522152614   0.165930108   0.346183104
   8  3      -75.5939816827    -0.0951333174   0.037085861   0.036565549
   9  4      -75.5948395242    -0.0008578416   0.012263088   0.011465376
  10  5      -75.5949682086    -0.0001286843   0.007145431   0.002799830
  11  6      -75.5950277501    -0.0000595415   0.027402175   0.002360163
  12  7      -75.5951635577    -0.0001358075   0.013764413   0.000816518
  13  8      -75.5951806817    -0.0000171240   0.000120955   0.000030885
  14  9      -75.5951806831    -0.0000000014   0.000078400   0.000017280
  15 10      -75.5951806839    -0.0000000008   0.000000537   0.000000570
  16 11      -75.5951806839    -0.0000000000   0.000000313   0.000000046

 ROHF HAS CONVERGED, NOW COMPUTING EXACT ALPHA,BETA FOCK MATRICES
 FOR USE DURING THE COUPLED CLUSTER CALCULATION THAT FOLLOWS.

          -----------------
          DENSITY CONVERGED
          -----------------

 FINAL ROHF ENERGY IS      -75.5951806839 AFTER  16 ITERATIONS

          --------------------
          SPIN SZ   =    0.000
          S-SQUARED =    0.000
          --------------------

          ------------
          EIGENVECTORS
          ------------

                      1          2          3          4          5
                  -20.6580    -1.1915    -0.5028    -0.4230    -0.4184
                     A1         A1         B1         A1         B2  
    1  H  1  S    0.000093   0.018928  -0.000000  -0.130347  -0.157086
    2  H  1  S   -0.000096   0.025672  -0.000000  -0.255594  -0.298655
    3  H  2  S    0.000093   0.018928  -0.000000  -0.130347   0.157086
    4  H  2  S   -0.000096   0.025672  -0.000000  -0.255594   0.298655
    5  O  3  S    0.581364  -0.143996  -0.000000  -0.016891   0.000000
    6  O  3  S    0.461358  -0.199242  -0.000000  -0.024279   0.000000
    7  O  3  S   -0.001324   0.581546  -0.000000   0.090485   0.000000
    8  O  3  S    0.001791   0.526855  -0.000000   0.056395   0.000000
    9  O  3  X   -0.000000  -0.000000   0.765436  -0.000000   0.000000
   10  O  3  Y   -0.000000  -0.000000  -0.000000  -0.000000   0.478143
   11  O  3  Z   -0.000660   0.000860  -0.000000   0.563836   0.000000
   12  O  3  X   -0.000000  -0.000000   0.363767  -0.000000   0.000000
   13  O  3  Y   -0.000000  -0.000000  -0.000000  -0.000000   0.291838
   14  O  3  Z    0.000211  -0.006792  -0.000000   0.327035   0.000000

                      6          7          8          9         10
                   -0.0393     0.0160     0.8721     0.9179     0.9852
                     A1         B2         B1         A1         B2  
    1  H  1  S    0.182055   0.172478  -0.000000  -0.282909  -0.257117
    2  H  1  S    0.499632   0.498444  -0.000000   0.413813   0.547484
    3  H  2  S    0.182055  -0.172478  -0.000000  -0.282909   0.257117
    4  H  2  S    0.499632  -0.498444  -0.000000   0.413813  -0.547484
    5  O  3  S    0.021569  -0.000000  -0.000000   0.023243   0.000000
    6  O  3  S    0.029968  -0.000000  -0.000000   0.037290   0.000000
    7  O  3  S   -0.086037  -0.000000  -0.000000  -0.209580   0.000000
    8  O  3  S   -0.150530  -0.000000  -0.000000   0.078689   0.000000
    9  O  3  X    0.000000  -0.000000  -0.870779   0.000000   0.000000
   10  O  3  Y    0.000000   0.502516  -0.000000   0.000000  -0.914933
   11  O  3  Z    0.430054  -0.000000  -0.000000  -0.865658   0.000000
   12  O  3  X    0.000000  -0.000000   1.100828   0.000000   0.000000
   13  O  3  Y    0.000000   0.420088  -0.000000   0.000000   1.247107
   14  O  3  Z    0.324169  -0.000000  -0.000000   1.105456   0.000000

                     11         12         13         14
                    1.0408     1.0941     1.3540    43.0962
                     A1         B2         A1         A1  
    1  H  1  S    0.878913   0.929764   0.249409   0.008164
    2  H  1  S   -0.701967  -0.807200  -0.441904  -0.026611
    3  H  2  S    0.878913  -0.929764   0.249409   0.008164
    4  H  2  S   -0.701967   0.807200  -0.441904  -0.026611
    5  O  3  S   -0.029653   0.000000   0.141061  -1.730895
    6  O  3  S   -0.046779   0.000000   0.239571   1.868576
    7  O  3  S    0.253681   0.000000  -1.673343  -0.333499
    8  O  3  S   -0.055143   0.000000   1.692223   0.196554
    9  O  3  X    0.000000   0.000000   0.000000   0.000000
   10  O  3  Y    0.000000  -0.266949   0.000000   0.000000
   11  O  3  Z   -0.318571   0.000000   0.100932   0.003571
   12  O  3  X    0.000000   0.000000   0.000000   0.000000
   13  O  3  Y    0.000000   0.125002   0.000000   0.000000
   14  O  3  Z    0.275026   0.000000  -0.211616  -0.012413
 ...... END OF ROHF CALCULATION ......
 STEP CPU TIME =     0.01 TOTAL CPU TIME =        0.0 (    0.0 MIN)
 TOTAL WALL CLOCK TIME=        0.0 SECONDS, CPU UTILIZATION IS 100.00%

     ----------------------------------------------------------------
     PROPERTY VALUES FOR THE ROHF  SELF-CONSISTENT FIELD WAVEFUNCTION
     ----------------------------------------------------------------

          ---------------------------------------
          MULLIKEN AND LOWDIN POPULATION ANALYSES
          ---------------------------------------

          MULLIKEN SPHERICAL HARMONIC POPULATIONS
       ATOM           S       P       D      F      G      H      I    TOTAL
    1 HYDROGEN      0.39    0.00    0.00   0.00   0.00   0.00   0.00    0.39
    2 HYDROGEN      0.39    0.00    0.00   0.00   0.00   0.00   0.00    0.39
    3 OXYGEN	       1.99    2.23    0.00   0.00   0.00   0.00   0.00    4.22

          MULLIKEN SPHERICAL HARMONIC POPULATIONS
       ATOM           S       P       D      F      G      H      I    TOTAL
    1 HYDROGEN      0.39    0.00    0.00   0.00   0.00   0.00   0.00    0.39
    2 HYDROGEN      0.39    0.00    0.00   0.00   0.00   0.00   0.00    0.39
    3 OXYGEN	       1.99    2.23    0.00   0.00   0.00   0.00   0.00    4.22

     ATOMIC SPIN POPULATION (ALPHA MINUS BETA)
       ATOM         MULL.POP.                    LOW.POP.
    1 HYDROGEN      0.000000                     0.000000
    2 HYDROGEN      0.000000                     0.000000
    3 OXYGEN	       0.000000                     0.000000

               ----- POPULATIONS IN EACH AO -----
                             MULLIKEN      LOWDIN
              1  H  1  S      0.22329     0.24876
              2  H  1  S      0.55247     0.51203
              3  H  2  S      0.22329     0.24876
              4  H  2  S      0.55247     0.51203
              5  O  3  S      1.13358     1.07509
              6  O  3  S      0.86107     0.91010
              7  O  3  S      1.01280     0.98175
              8  O  3  S      0.97959     1.00539
              9  O  3  X      1.45357     1.39122
             10  O  3  Y      0.64609     0.59891
             11  O  3  Z      0.85564     0.80761
             12  O  3  X      0.54643     0.60878
             13  O  3  Y      0.46053     0.53888
             14  O  3  Z      0.49919     0.56069

          ----- MULLIKEN ATOMIC OVERLAP POPULATIONS -----
          (OFF-DIAGONAL ELEMENTS NEED TO BE MULTIPLIED BY 2)

             1           2           3

    1    0.6149509
    2   -0.0019747   0.6149509
    3    0.1627811   0.1627811   8.1229232

          TOTAL MULLIKEN AND LOWDIN ATOMIC POPULATIONS
       ATOM         MULL.POP.    CHARGE          LOW.POP.     CHARGE
    1 HYDROGEN      0.775757    0.224243         0.775757    0.224243

          MULLIKEN SPHERICAL HARMONIC POPULATIONS
       ATOM           S       P       D      F      G      H      I    TOTAL
    1 HYDROGEN      0.78    0.00    0.00   0.00   0.00   0.00   0.00    0.78
    2 HYDROGEN      0.78    0.00    0.00   0.00   0.00   0.00   0.00    0.78
    3 OXYGEN	       3.99    4.46    0.00   0.00   0.00   0.00   0.00    8.45

          -------------------------------
          BOND ORDER AND VALENCE ANALYSIS     BOND ORDER THRESHOLD=0.050
          -------------------------------

                   BOND                       BOND                       BOND
  ATOM PAIR DIST  ORDER      ATOM PAIR DIST  ORDER      ATOM PAIR DIST  ORDER
    1   3  1.951  0.935        2   3  1.951  0.935

                       TOTAL       BONDED        FREE
      ATOM            VALENCE     VALENCE     VALENCE
    1 HYDROGEN          0.949       0.949      -0.000
    2 HYDROGEN          0.949       0.949      -0.000
    3 OXYGEN	           1.870       1.870       0.000

          -----------------------------------------
          ATOMIC SPIN DENSITY AT THE NUCLEUS (A.U.)
          -----------------------------------------
                            SPIN DENS    ALPHA DENS     BETA DENS
    1  HYDROGEN     1.0     0.0000000       0.36610       0.01535
    2  HYDROGEN     1.0     0.0000000       0.36610       0.03161
    3  OXYGEN	      8.0     0.0000000     148.56963      -0.00000

          ---------------------
          ELECTROSTATIC MOMENTS
          ---------------------

 POINT   1           X           Y           Z (BOHR)    CHARGE
                -0.000000    0.000000   -0.252998        0.00 (A.U.)
         DX          DY          DZ         /D/  (DEBYE)
    -0.000000   -0.000000   -2.444866    2.444866
 ...... END OF PROPERTY EVALUATION ......
 STEP CPU TIME =     0.01 TOTAL CPU TIME =        0.0 (    0.0 MIN)
 TOTAL WALL CLOCK TIME=        0.0 SECONDS, CPU UTILIZATION IS 100.00%

     ---------------------------
     COUPLED CLUSTER CALCULATION
     ---------------------------
 CCTYP                        =CCSD    
 TOTAL NUMBER OF MOS          =    14
 NUMBER OF OCCUPIED MOS       =     5
 NUMBER OF FROZEN CORE MOS    =     0
 NUMBER OF FROZEN VIRTUAL MOS =     0
 MAXIMUM CC ITERATIONS        =    30
 MAXIMUM DIIS ITERATIONS      =    -1
 CONVERGENCE CRITERION FOR CC =     7
 AMPLITUDE ACCURACY THRESHOLD = 0.0E+00

     --------------------------------------------
     PARTIAL TWO ELECTRON INTEGRAL TRANSFORMATION
     --------------------------------------------

 NUMBER OF CORE MOLECULAR ORBITALS     =    0
 NUMBER OF OCCUPIED MOLECULAR ORBITALS =   14
 TOTAL NUMBER OF MOLECULAR ORBITALS    =   14
 TOTAL NUMBER OF ATOMIC ORBITALS       =   14
 THRESHOLD FOR KEEPING TRANSFORMED 2E- INTEGRALS = 1.000E-09
 AO INTEGRALS WILL BE READ IN FROM DISK...
 # OF WORDS AVAILABLE =  200000000
 # OF WORDS NEEDED    =      81590 FOR IN MEMORY TRANSFORMATION

 CHOOSING IN MEMORY PARTIAL TRANSFORMATION...
 TOTAL NUMBER OF TRANSFORMED 2E- INTEGRALS KEPT =      1925
 ... END OF INTEGRAL TRANSFORMATION ...
 STEP CPU TIME =     0.00 TOTAL CPU TIME =        0.0 (    0.0 MIN)
 TOTAL WALL CLOCK TIME=        0.0 SECONDS, CPU UTILIZATION IS 100.00%

   -----------------------     ----------------------------------------------
   ROHF-COUPLED-CLUSTER PROGRAM     XXXXXXXXXXXXXXXXXXXXXXXXXXXXXXXXXXX
   -----------------------     ----------------------------------------------
 JESTEM W ROCCDRVR

 THE FOLLOWING CALCULATIONS WILL BE PERFORMED:
                                                     CCSD   

 THE FOLLOWING ENERGY WILL BE CONSIDERED THE HIGHEST LEVEL:    CCSD   
 THE AVAILABLE REPLICATED MEMORY IS   200000000 WORDS.
 CONVERGENCE THRESHOLD:   1.0E-07
 MAXIMUM NUMBER OF ITERATIONS:   30
 ### NH NP ###                    5                    9
 BEFORE DRROSING
 THE EOM-CCSD POINT GROUP IS C2V
 JESTEM W DRROSING

 MEMORY TO BE USED IN CC INTEGRAL SORTING IS       68521 WORDS.
 THE MINIMUM MEMORY TO ACCOMPLISH SORTING IS       68521 WORDS.
 BEFORE ROSING
 NINTMX                15000
 JESTEM W ROSING STEP1
 JESTEM W ROSING STEP2
 NCCTCORR                   14
 JESTEM W ROSING STEP3
 NINTMX                15000
 JESTEM W ROSING STEP4
 JESTEM W ROSING STEP5
 JESTEM W ROSING
 ....... DONE WITH CC INTEGRAL PREPARATION .......
 STEP CPU TIME =     0.04 TOTAL CPU TIME =        0.1 (    0.0 MIN)
 TOTAL WALL CLOCK TIME=        0.1 SECONDS, CPU UTILIZATION IS  87.50%
               440000  WORDS OF DYNAMIC MEMORY USED
 EXECUTION OF GAMESS TERMINATED NORMALLY Thu Feb 25 15:11:27 2021
 DDI: 263624 bytes (0.3 MB / 0 MWords) used by master data server.

 ----------------------------------------
 CPU timing information for all processes
 ========================================
 0: 0.39 + 0.46 = 0.86
 ----------------------------------------
 ddikick.x: exited gracefully.
----- accounting info -----
Files used on the master node stochastic.cem.msu.edu were:
-rw-r--r-- 1 gururang piecuch    1051 Feb 25 15:11 /scratch/gururang/h2o-2Re.F05
-rw-r--r-- 1 gururang piecuch  180016 Feb 25 15:11 /scratch/gururang/h2o-2Re.F08
-rw-r--r-- 1 gururang piecuch  180864 Feb 25 15:11 /scratch/gururang/h2o-2Re.F09
-rw-r--r-- 1 gururang piecuch 1276080 Feb 25 15:11 /scratch/gururang/h2o-2Re.F10
-rw-r--r-- 1 gururang piecuch       0 Feb 25 15:11 /scratch/gururang/h2o-2Re.F72
Thu Feb 25 15:11:30 EST 2021
0.076u 0.063s 0:03.24 4.0%	0+0k 0+1024io 0pf+0w
