----- GAMESS execution script 'rungms' -----
This job is running on host linked.cem.msu.edu
under operating system Linux at Thu Apr 16 15:48:27 EDT 2020
Available scratch disk space (Kbyte units) at beginning of the job is
Filesystem      1K-blocks       Used  Available Use% Mounted on
/dev/sda1      5270545388 3131487296 2139058092  60% /scratch
GAMESS temporary binary files will be written to /scratch/gururang
GAMESS supplementary output files will be written to /home2/gururang/gamess/tests
Copying input file monomer_scf.inp to your run's scratch directory...

 Distributed Data Interface kickoff program.
 Initiating 1 compute processes on 1 nodes to run the following command:
 /home2/gururang/gamess/gamess.00.x monomer_scf 

          ******************************************************
          *      GAMESS VERSION = 30 JUN 2019 R1 Patch 1       *
          *             FROM IOWA STATE UNIVERSITY             *
          * M.W.SCHMIDT, K.K.BALDRIDGE, J.A.BOATZ, S.T.ELBERT, *
          *   M.S.GORDON, J.H.JENSEN, S.KOSEKI, N.MATSUNAGA,   *
          *          K.A.NGUYEN, S.J.SU, T.L.WINDUS,           *
          *       TOGETHER WITH M.DUPUIS, J.A.MONTGOMERY       *
          *         J.COMPUT.CHEM.  14, 1347-1363(1993)        *
          **************** 64 BIT LINUX VERSION ****************

  SINCE 1993, STUDENTS AND POSTDOCS WORKING AT IOWA STATE UNIVERSITY
  AND ALSO IN THEIR VARIOUS JOBS AFTER LEAVING ISU HAVE MADE IMPORTANT
  CONTRIBUTIONS TO THE CODE:
     IVANA ADAMOVIC, CHRISTINE AIKENS, YURI ALEXEEV, POOJA ARORA,
     ANDREY ASADCHEV, ROB BELL, PRADIPTA BANDYOPADHYAY, JONATHAN BENTZ,
     COLLEEN BERTONI, BRETT BODE, KURT BRORSEN, CALEB CARLIN, GALINA CHABAN,
     WEI CHEN, CHEOL HO CHOI, PAUL DAY, ALBERT DEFUSCO, NUWAN DESILVA,
     TIM DUDLEY, DMITRI FEDOROV, ALEX FINDLATER, GRAHAM FLETCHER, 
     MARK FREITAG, KURT GLAESEMANN, ANASTASIA GUNINA,
     DAN KEMP, GRANT MERRILL, NORIYUKI MINEZAWA, JONATHAN MULLIN,
     TAKESHI NAGATA, SEAN NEDD, HEATHER NETZLOFF, BOSILJKA NJEGIC, RYAN OLSON,
     MIKE PAK, BUU PHAM,
     SPENCER PRUITT, LUKE ROSKOP, JIM SHOEMAKER, LYUDMILA SLIPCHENKO,
     TONY SMITH, SAROM SOK LEANG, JIE SONG, TETSUYA TAKETSUGU, SIMON WEBB,
     PENG XU, SOOHAENG YOO, FEDERICO ZAHARIEV

  ADDITIONAL CODE HAS BEEN PROVIDED BY COLLABORATORS IN OTHER GROUPS:
     IOWA STATE UNIVERSITY:
          JOE IVANIC, AARON WEST, LAIMUTIS BYTAUTAS, KLAUS RUEDENBERG
     UNIVERSITY OF TOKYO: KIMIHIKO HIRAO, TAKAHITO NAKAJIMA,
          TAKAO TSUNEDA, MUNEAKI KAMIYA, SUSUMU YANAGISAWA,
          KIYOSHI YAGI, MAHITO CHIBA, SEIKEN TOKURA, NAOAKI KAWAKAMI
     UNIVERSITY OF AARHUS: FRANK JENSEN
     UNIVERSITY OF IOWA: VISVALDAS KAIRYS, HUI LI
     NATIONAL INST. OF STANDARDS AND TECHNOLOGY: WALT STEVENS, DAVID GARMER
     UNIVERSITY OF PISA: BENEDETTA MENNUCCI, JACOPO TOMASI
     UNIVERSITY OF MEMPHIS: HENRY KURTZ, PRAKASHAN KORAMBATH
     UNIVERSITY OF ALBERTA: TOBY ZENG, MARIUSZ KLOBUKOWSKI
     UNIVERSITY OF NEW ENGLAND: MARK SPACKMAN
     MIE UNIVERSITY: HIROAKI UMEDA
     NAT. INST. OF ADVANCED INDUSTRIAL SCIENCE AND TECHNOLOGY: KAZUO KITAURA
     MICHIGAN STATE UNIVERSITY:
          KAROL KOWALSKI, MARTA WLOCH, JEFFREY GOUR, JESSE LUTZ,
          WEI LI, JUN SHEN, J. EMILIANO DEUSTUA, PIOTR PIECUCH
     UNIVERSITY OF MINNESOTA:
          YINAN SHU
     UNIVERSITY OF SILESIA: MONIKA MUSIAL, STANISLAW KUCHARSKI
     FACULTES UNIVERSITAIRES NOTRE-DAME DE LA PAIX:
          OLIVIER QUINET, BENOIT CHAMPAGNE
     UNIVERSITY OF CALIFORNIA - SANTA BARBARA: BERNARD KIRTMAN
     INSTITUTE FOR MOLECULAR SCIENCE:
          KAZUYA ISHIMURA, MICHIO KATOUDA, AND SHIGERU NAGASE
     UNIVERSITY OF NOTRE DAME: ANNA POMOGAEVA, DAN CHIPMAN
     KYUSHU UNIVERSITY:
          HARUYUKI NAKANO,
          FENG LONG GU, JACEK KORCHOWIEC, MARCIN MAKOWSKI, AND YURIKO AOKI,
          HIROTOSHI MORI AND EISAKU MIYOSHI
     PENNSYLVANIA STATE UNIVERSITY:
          TZVETELIN IORDANOV, CHET SWALINA, JONATHAN SKONE,
          SHARON HAMMES-SCHIFFER
     WASEDA UNIVERSITY:
          MASATO KOBAYASHI, TOMOKO AKAMA, TSUGUKI TOUMA,
          TAKESHI YOSHIKAWA, YASUHIRO IKABATA, JUNJI SEINO,
          YUYA NAKAJIMA, HIROMI NAKAI
     NANJING UNIVERSITY: SHUHUA LI
     UNIVERSITY OF NEBRASKA:
          PEIFENG SU, DEJUN SI, NANDUN THELLAMUREGE, YALI WANG, HUI LI
     UNIVERSITY OF ZURICH: ROBERTO PEVERATI, KIM BALDRIDGE
     N. COPERNICUS UNIVERSITY AND JACKSON STATE UNIVERSITY:
          MARIA BARYSZ
     UNIVERSITY OF COPENHAGEN: Jimmy Kromann, CASPER STEINMANN
     TOKYO INSTITUTE OF TECHNOLOGY: HIROYA NAKATA
     NAGOYA UNIVERSITY: YOSHIO NISHIMOTO, STEPHAN IRLE
     MOSCOW STATE UNIVERSITY: VLADIMIR MIRONOV
     A.N.NESMEYANOV INSTITUTE OF ORGANOELEMENT COMPOUNDS OF RUSSIAN ACADEMY OF SCIENCES:
          IGOR S. GERASIMOV

 EXECUTION OF GAMESS BEGUN Thu Apr 16 15:48:27 2020

            ECHO OF THE FIRST FEW INPUT CARDS -
 INPUT CARD> $CONTRL SCFTYP=RHF RUNTYP=ENERGY EXETYP=RUN UNITS=ANGSTROM ISPHER=1 $END       
 INPUT CARD> $SYSTEM MWORDS=100 $END                                                        
 INPUT CARD> $SCF nconv=1.0d-6 diis=.true. $END                                             
 INPUT CARD> $BASIS GBASIS=N21 NGAUSS=3 $END                                                
 INPUT CARD> $DATA                                                                          
 INPUT CARD>                                                                                
 INPUT CARD> c1                                                                             
 INPUT CARD>C   6.0      -1.21049        0.70500        0.03784                             
 INPUT CARD>C   6.0      -2.41828        1.41583       -0.06440                             
 INPUT CARD>C   6.0      -3.63857        0.73534       -0.03862                             
 INPUT CARD>C   6.0      -3.66349       -0.65522        0.08976                             
 INPUT CARD>C   6.0      -2.46802       -1.37257        0.18934                             
 INPUT CARD>C   6.0      -1.23524       -0.69868        0.16235                             
 INPUT CARD>C   6.0      -0.03285       -1.40754        0.25776                             
 INPUT CARD>C   6.0       1.21439       -0.73901        0.23838                             
 INPUT CARD>C   6.0       1.24024        0.67552        0.11966                             
 INPUT CARD>C   6.0       0.01557        1.37820        0.01760                             
 INPUT CARD>C   6.0       2.42981       -1.45744        0.33453                             
 INPUT CARD>C   6.0       3.66898       -0.77385        0.32793                             
 INPUT CARD>C   6.0       3.69783        0.63948        0.20492                             
 INPUT CARD>C   6.0       2.48235        1.35984        0.09637                             
 INPUT CARD>C   6.0       4.88894       -1.48158        0.43120                             
 INPUT CARD>C   6.0       6.11647       -0.81756        0.41189                             
 INPUT CARD>C   6.0       6.14927        0.58500        0.28240                             
 INPUT CARD>C   6.0       4.94948        1.30113        0.18242                             
 INPUT CARD>C   6.0       7.31730       -1.53866        0.51769                             
 INPUT CARD>C   6.0       8.54223       -0.86857        0.49037                             
 INPUT CARD>C   6.0       8.57756        0.52137        0.35646                             
 INPUT CARD>C   6.0       7.38745        1.24847        0.25341                             
 INPUT CARD>C   6.0       2.41748       -2.90496        0.39280                             
 INPUT CARD>C   6.0      2.43414       -4.10629        0.44328                              
 INPUT CARD>Si  14.0       2.43796       -5.91704        0.51570                            
 INPUT CARD>C   6.0       3.89829       -6.48090        1.61418                             
 INPUT CARD>C   6.0       3.94993       -7.99635        1.82754                             
 INPUT CARD>C   6.0       5.24840       -5.97559        1.10517                             
 INPUT CARD>C   6.0       0.67086       -6.34321        1.08738                             
 INPUT CARD>C   6.0       0.29065       -7.81980        0.96352                             
 INPUT CARD>C   6.0       0.48087       -5.86915        2.53175                             
 INPUT CARD>C   6.0       2.58489       -6.35422       -1.35006                             
 INPUT CARD>C   6.0       3.63232       -5.49031       -2.07618                             
 INPUT CARD>C   6.0       2.88651       -7.82974       -1.62449                             
 INPUT CARD>C   6.0       2.50179        2.80644       -0.01649                             
 INPUT CARD>C   6.0       2.49205        4.00715       -0.11715                             
 INPUT CARD>C   6.0       2.44278        5.44116       -0.19916                             
 INPUT CARD>C   6.0       1.31687        6.12122        0.27985                             
 INPUT CARD>C   6.0       1.25520        7.51524        0.20682                             
 INPUT CARD>C   6.0       2.31923        8.24134       -0.35172                             
 INPUT CARD>C   6.0       3.44124        7.55443       -0.84184                             
 INPUT CARD>C   6.0       3.50221        6.15860       -0.76812                             
 INPUT CARD>C   6.0       2.26858        9.73832       -0.42794                             
  100000000 WORDS OF MEMORY AVAILABLE

     BASIS OPTIONS
     -------------
     GBASIS=N21          IGAUSS=       3      POLAR=NONE    
     NDFUNC=       0     NFFUNC=       0     DIFFSP=       F
     NPFUNC=       0      DIFFS=       F     BASNAM=        


     RUN TITLE
     ---------
                                                                                 

 THE POINT GROUP OF THE MOLECULE IS C1      
 THE ORDER OF THE PRINCIPAL AXIS IS     0

 ATOM      ATOMIC                      COORDINATES (BOHR)
           CHARGE         X                   Y                   Z
 C           6.0    -2.2874944109        1.3322568213        0.0715072314
 C           6.0    -4.5698865616        2.6755307452       -0.1216983536
 C           6.0    -6.8759002871        1.3895911078       -0.0729812176
 C           6.0    -6.9229922588       -1.2381862617        0.1696218047
 C           6.0    -4.6638815322       -2.5937811990        0.3578007185
 C           6.0    -2.3342651291       -1.3203137531        0.3067970141
 C           6.0    -0.0620774987       -2.6598649168        0.4870957706
 C           6.0     2.2948643422       -1.3965264022        0.4504728810
 C           6.0     2.3437137590        1.2765476992        0.2261246117
 C           6.0     0.0294230336        2.6044203563        0.0332591774
 C           6.0     4.5916751022       -2.7541622435        0.6321700347
 C           6.0     6.9333668544       -1.4623644556        0.6196978432
 C           6.0     6.9878854492        1.2084419746        0.3872426494
 C           6.0     4.6909613056        2.5697249871        0.1821128934
 C           6.0     9.2387569704       -2.7997802289        0.8148498459
 C           6.0    11.5584523121       -1.5449643785        0.7783592371
 C           6.0    11.6204353245        1.1054897028        0.5336586189
 C           6.0     9.3531609817        2.4587791744        0.3447238147
 C           6.0    13.8276919700       -2.9076457883        0.9782922466
 C           6.0    16.1424740241       -1.6413593012        0.9266649326
 C           6.0    16.2092380432        0.9852464382        0.6736117256
 C           6.0    13.9602562480        2.3592662039        0.4788754625
 C           6.0     4.5683747808       -5.4895784053        0.7422843680
 C           6.0     4.5998576158       -7.7597629261        0.8376777358
 SI         14.0     4.6070763690      -11.1815842584        0.9745316919
 C           6.0     7.3666999207      -12.2471251538        3.0503578949
 C           6.0     7.4642853707      -15.1109104019        3.4535498316
 C           6.0     9.9180378740      -11.2922277150        2.0884684699
 C           6.0     1.2677415761      -11.9869287826        2.0548502445
 C           6.0     0.5492488583      -14.7772792788        1.8207887837
 C           6.0     0.9087125357      -11.0910852808        4.7843137694
 C           6.0     4.8847338084      -12.0077346657       -2.5512434670
 C           6.0     6.8640894997      -10.3751814876       -3.9234113012
 C           6.0     5.4547129608      -14.7960631551       -3.0698409698
 C           6.0     4.7276975788        5.3034026010       -0.0311615815
 C           6.0     4.7092916477        7.5724154917       -0.2213813995
 C           6.0     4.6161848483       10.2823014554       -0.3763578277
 C           6.0     2.4885234615       11.5674285106        0.5288398177
 C           6.0     2.3719840598       14.2017443320        0.3908331288
 C           6.0     4.3827092025       15.5738743717       -0.6646544244
 C           6.0     6.5030006580       14.2758026934       -1.5908469255
 C           6.0     6.6182172515       11.6380664680       -1.4515363257
 C           6.0     4.2869945812       18.4027563808       -0.8086893392
 H           1.0    -4.5714550342        4.7146962640       -0.3092536579
 H           1.0    -8.6294337229        2.4322852161       -0.2217404474
 H           1.0    -8.7135076321       -2.2262294944        0.2103831942
 H           1.0    -4.7386579896       -4.6316428069        0.5436552694
 H           1.0    -0.1555433460       -4.6974997575        0.6650323696
 H           1.0     0.0018708287        4.6427354984       -0.1500253462
 H           1.0     9.2575219495       -4.8347883505        0.9973784791
 H           1.0     9.4567179658        4.4942219330        0.1564693118
 H           1.0    13.8108167169       -4.9468868961        1.1728584343
 H           1.0    17.8864454464       -2.6992468063        1.0804130390
 H           1.0    18.0078036493        1.9574915616        0.6294110347
 H           1.0    14.0510008899        4.3950680105        0.2842525831
 H           1.0     7.0311790716      -11.3631491313        4.9258164514
 H           1.0     7.7814569805      -16.1399039968        1.6636958623
 H           1.0     5.6993568872      -15.7905881479        4.3380171829
 H           1.0     9.0324555843      -15.5966644671        4.7621472836
 H           1.0    10.4260718085      -12.2042661684        0.2771283161
 H           1.0    11.4231101369      -11.7585364997        3.4766233859
 H           1.0     9.8845330322       -9.2101465190        1.8576951322
 H           1.0    -0.0507391428      -10.9037945382        0.8294196333
 H           1.0     1.7897783802      -16.0075853831        2.9649044857
 H           1.0     0.5923346109      -15.3777964032       -0.1777098319
 H           1.0    -1.4243053742      -15.0564107044        2.4803409479
 H           1.0     2.1972222004      -12.1259748208        6.0798154203
 H           1.0    -1.0705297720      -11.4181779521        5.4027832907
 H           1.0     1.2951426029       -9.0337405980        4.9432208277
 H           1.0     3.0214639845      -11.5260246142       -3.3918502781
 H           1.0     8.7977327194      -10.7286547337       -3.2199419050
 H           1.0     6.4449104811       -8.3321798251       -3.7208704698
 H           1.0     6.8456079796      -10.7976108349       -5.9792064087
 H           1.0     7.3745233863      -15.2917193844       -2.4018039359
 H           1.0     5.3941850374      -15.1530323942       -5.1385618031
 H           1.0     4.0724539898      -16.0702297996       -2.1725990708
 H           1.0     0.9238114464       10.5320098474        1.3494344306
 H           1.0     0.7161116630       15.1647675926        1.1105730657
 H           1.0     8.0658607416       15.3081600005       -2.4162603397
 H           1.0     8.2666819223       10.6603033447       -2.1720510503
 H           1.0     2.5016003653       19.1557365978       -0.0004724315
 H           1.0     4.4205037223       19.0150087035       -2.8106083588
 H           1.0     5.8937529995       19.2151495829        0.2690402889

          INTERNUCLEAR DISTANCES (ANGS.)
          ------------------------------

                1 C          2 C          3 C          4 C          5 C     

   1 C       0.0000000    1.4051651 *  2.4294730 *  2.8053704 *  2.4332347 *
   2 C       1.4051651 *  0.0000000    1.3974401 *  2.4214792 *  2.8003629 *
   3 C       2.4294730 *  1.3974401 *  0.0000000    1.3966959 *  2.4218666 *
   4 C       2.8053704 *  2.4214792 *  1.3966959 *  0.0000000    1.3977323 *
   5 C       2.4332347 *  2.8003629 *  2.4218666 *  1.3977323 *  0.0000000  
   6 C       1.4094087 *  2.4335472 *  2.8058506 *  2.4297235 *  1.4052056 *
   7 C       2.4285852 *  3.7101862    4.2048772    3.7115706    2.4363820 *
   8 C       2.8293858 *  4.2345369    5.0795332    4.8808628    3.7368364  
   9 C       2.4522726 *  3.7372056    4.8817433    5.0811742    4.2368290  
  10 C       1.3988678 *  2.4355217 *  3.7106831    4.2042225    3.7100471  
  11 C       4.2445207    5.6496728    6.4631850    6.1507540    4.9007165  
  12 C       5.1068950    6.4809996    7.4707630    7.3372961    6.1676934  
  13 C       4.9115999    6.1710659    7.3410671    7.4751951    6.4858534  
  14 C       3.7509077    4.9035861    6.1541762    6.4677554    5.6551632  
  15 C       6.4914490    7.8762979    8.8234852    8.5990413    7.3617416  
  16 C       7.4928262    8.8349782    9.8881375    9.7866102    8.6052910  
  17 C       7.3647999    8.6147235    9.7942569    9.8927001    8.8373315  
  18 C       6.1904366    7.3727853    8.6095052    8.8328446    7.8846703  
  19 C       8.8310514   10.1906505   11.2031979   11.0245789    9.7922361  
  20 C       9.8892089   11.2097740   12.2973268   12.2141560   11.0258895  
  21 C       9.7949559   11.0401847   12.2243897   12.3003576   11.2080228  
  22 C       8.6177957    9.8123062   11.0418160   11.2149049   10.1982471  
  23 C       5.1302996    6.5009871    7.0790994    6.4908674    5.1242292  
  24 C       6.0494810    7.3686856    7.7814790    7.0154082    5.6186193  
  25 SI      7.5756816    8.8142252    9.0269401    8.0682010    6.6953236  
  26 C       8.9566534   10.2506113   10.5645694    9.6665878    8.2858378  
  27 C      10.2735803   11.5205324   11.7179476   10.7180331    9.3674032  
  28 C       9.3534345   10.7134946   11.1947788   10.4287668    9.0315932  
  29 C       7.3700934    8.4304261    8.3633087    7.2204616    5.9469577  
  30 C       8.7053156    9.6794516    9.4674957    8.2298169    7.0552384  
  31 C       7.2318555    8.2592977    8.1973091    7.0939482    5.8653277  
  32 C       8.1341111    9.3305042    9.5243472    8.5786908    7.2607499  
  33 C       8.1427118    9.3995632    9.7865321    9.0165534    7.7008124  
  34 C       9.6119996   10.7728939   10.8835770    9.8648310    8.5823083  
  35 C       4.2661487    5.1130402    6.4802751    7.0714254    6.4965762  
  36 C       4.9635692    5.5523925    6.9494899    7.7247122    7.3237707  
  37 C       5.9861308    6.3127923    7.6911204    8.6334152    8.4079608  
  38 C       5.9817687    6.0175201    7.3256749    8.4119117    8.3958605  
  39 C       7.2448292    7.1253644    8.3651820    9.5374856    9.6361735  
  40 C       8.3310924    8.3134915    9.5881932   10.7301735   10.7535005  
  41 C       8.3262909    8.5217837    9.8624977   10.8969454   10.7551855  
  42 C       7.2526454    7.6184835    8.9963692    9.9252888    9.6581001  
  43 C       9.6913234    9.5583815   10.7749543   11.9784449   12.0941428  
  44 H       2.1691331 *  1.0836350 *  2.1444817 *  3.3964713    3.8838635  
  45 H       3.4096534    2.1527240 *  1.0824514 *  2.1519673 *  3.4017008  
  46 H       3.8877698    3.4010550    2.1515630 *  1.0824018 *  2.1531921 *
  47 H       3.4212537    3.8838137    3.3967781    2.1447525 *  1.0835883 *
  48 H       3.3989270    4.5664946    4.8140746    4.0304637    2.6376785 *
  49 H       2.1331514 *  2.6337754 *  4.0263615    4.8106009    4.5642667  
  50 H       6.9436663    8.3478353    9.1683052    8.7822663    7.4694010  
  51 H       6.4362349    7.4861404    8.7984498    9.1832546    8.3615306  
  52 H       9.1625057   10.5521099   11.4679356   11.1586378    9.8648050  
  53 H      10.8997509   12.2355593   13.2951261   13.1601652   11.9393756  
  54 H      10.7489603   11.9602469   13.1765623   13.3029766   12.2375390  
  55 H       8.7972833    9.8980062   11.1892612   11.4924712   10.5715821  
  56 H       8.7205990   10.0005633   10.3294968    9.4640678    8.1042424  
  57 H      10.7045017   11.9477384   12.1265602   11.1066007    9.7588270  
  58 H      10.2499970   11.4275820   11.5058341   10.4299160    9.1257310  
  59 H      11.0588138   12.3282261   12.5782564   11.6158143   10.2619857  
  60 H       9.8278132   11.1811307   11.6451916   10.8611164    9.4673141  
  61 H      10.1919093   11.5582071   12.0708884   11.3272798    9.9354504  
  62 H       8.5735042    9.9580637   10.5437033    9.8843546    8.4946109  
  63 H       6.5945435    7.5900584    7.4560395    6.2855739    5.0358057  
  64 H       9.5496487   10.5707216   10.4099332    9.1940055    7.9970021  
  65 H       8.9739070    9.9363409    9.7134053    8.4755853    7.3199891  
  66 H       8.7775815    9.6288019    9.2675589    7.9643955    6.9060604  
  67 H       8.1523607    9.2164555    9.2090371    8.1406080    6.9133906  
  68 H       7.3415995    8.2218210    7.9855858    6.8029543    5.7051591  
  69 H       6.3506293    7.4303535    7.4944291    6.5046982    5.2388313  
  70 H       7.5861815    8.6953769    8.7879413    7.8027344    6.5436226  
  71 H       8.8418770   10.1508907   10.6154858    9.8815875    8.5358680  
  72 H       7.1788576    8.4577274    8.9376757    8.2687480    6.9596373  
  73 H       8.6493918    9.8453916   10.2021638    9.4479265    8.1967631  
  74 H      10.2587864   11.4807061   11.6750954   10.6958357    9.3737031  
  75 H      10.0113536   11.1292065   11.2239666   10.2271306    8.9977173  
  76 H       9.8763742   10.9770774   10.9620214    9.8486035    8.6036662  
  77 H       5.2005240    5.1324523    6.4037573    7.5117415    7.5672724  
  78 H       7.5105831    7.2061684    8.3468370    9.5881630    9.8272796  
  79 H       9.2976732    9.5326908   10.8767970   11.8933582   11.7164821  
  80 H       7.5477196    8.0729979    9.4610321   10.2854374    9.8896755  
  81 H       9.7663965    9.4901092   10.6307837   11.8890003   12.1193607  
  82 H      10.1235293    9.9709674   11.1725183   12.3848798   12.5170799  
  83 H      10.4070437   10.3588987   11.6049374   12.7730036   12.8220531  

                6 C          7 C          8 C          9 C         10 C     

   1 C       1.4094087 *  2.4285852 *  2.8293858 *  2.4522726 *  1.3988678 *
   2 C       2.4335472 *  3.7101862    4.2345369    3.7372056    2.4355217 *
   3 C       2.8058506 *  4.2048772    5.0795332    4.8817433    3.7106831  
   4 C       2.4297235 *  3.7115706    4.8808628    5.0811742    4.2042225  
   5 C       1.4052056 *  2.4363820 *  3.7368364    4.2368290    3.7100471  
   6 C       0.0000000    1.3990451 *  2.4511414 *  2.8316513 *  2.4287669 *
   7 C       1.3990451 *  0.0000000    1.4152440 *  2.4451930 *  2.7964922 *
   8 C       2.4511414 *  1.4152440 *  0.0000000    1.4197386 *  2.4430496 *
   9 C       2.8316513 *  2.4451930 *  1.4197386 *  0.0000000    1.4156243 *
  10 C       2.4287669 *  2.7964922 *  2.4430496 *  1.4156243 *  0.0000000  
  11 C       3.7467258    2.4643616 *  1.4151439 *  2.4516860 *  3.7376267  
  12 C       4.9075901    3.7563323    2.4564700 *  2.8359880 *  4.2514737  
  13 C       5.1115227    4.2557087    2.8405683 *  2.4593326 *  3.7602972  
  14 C       4.2499804    3.7430829    2.4562290 *  1.4183348 *  2.4681056 *
  15 C       6.1798700    4.9254015    3.7537858    4.2500764    5.6656104  
  16 C       7.3569044    6.1794797    4.9057786    5.1080628    6.4959839  
  17 C       7.4962147    6.4953391    5.1095969    4.9125608    6.1904411  
  18 C       6.5000311    5.6715237    4.2563130    3.7621521    4.9372637  
  19 C       8.6010333    7.3559133    6.1614093    6.4800987    7.8786689  
  20 C       9.7844458    8.5951494    7.3333160    7.4726634    8.8303691  
  21 C       9.8902601    8.8243751    7.4711962    7.3427584    8.6114259  
  22 C       8.8402753    7.8813235    6.4851347    6.1753017    7.3767914  
  23 C       4.2735398    2.8748251 *  2.4824606 *  3.7789332    4.9249778  
  24 C       5.0154837    3.6611076    3.5872481    4.9392139    6.0091859  
  25 SI      6.3912859    5.1484974    5.3278537    6.7121702    7.7030256  
  26 C       7.8673381    6.5599328    6.4857880    7.7790210    8.9101086  
  27 C       9.1057582    7.8574273    7.9169181    9.2444904   10.3265318  
  28 C       8.4126260    7.0339737    6.6668082    7.8277609    9.0908496  
  29 C       6.0290643    5.0541384    5.6941447    7.1079706    7.8226598  
  30 C       7.3267021    6.4590888    7.1775142    8.5897778    9.2506020  
  31 C       5.9407786    5.0339748    5.6670922    7.0162331    7.6851504  
  32 C       6.9904156    5.8229967    5.9943303    7.3065317    8.2620953  
  33 C       7.1877587    5.9623618    5.8119210    6.9685881    8.0399767  
  34 C       8.4281455    7.3013821    7.5196225    8.8369515    9.7839110  
  35 C       5.1267186    4.9251640    3.7805520    2.4800938 *  2.8674591 *
  36 C       6.0096295    5.9861962    4.9279663    3.5669126    3.6142065  
  37 C       7.1663209    7.2967261    6.3162397    4.9253501    4.7377186  
  38 C       7.2827267    7.6488208    6.8611207    5.4485945    4.9252813  
  39 C       8.5832832    9.0154129    8.2544112    6.8402917    6.2638444  
  40 C       9.6344425    9.9501071    9.0672805    7.6568956    7.2488577  
  41 C       9.5389563    9.6744678    8.6548763    7.2861709    7.1147501  
  42 C       8.3863875    8.4140094    7.3364969    5.9974018    5.9687719  
  43 C      11.0252513   11.4016209   10.5512911    9.1373789    8.6698423  
  44 H       3.4215262    4.5935759    4.8807980    4.0964969    2.6846898 *
  45 H       3.8883006    5.2873264    6.1359912    5.8436667    4.5849615  
  46 H       3.4100009    4.5862255    5.8432840    6.1378138    5.2866208  
  47 H       2.1691173 *  2.6858815 *  4.0971135    4.8835787    4.5936643  
  48 H       2.1351857 *  1.0835029 *  2.1784473 *  3.4346893    3.8796809  
  49 H       3.3976383    3.8791972    3.4331779    2.1790885 *  1.0830800 *
  50 H       6.4202518    5.0714293    4.1194113    4.9000786    6.2931872  
  51 H       6.9573971    6.3036037    4.9096557    4.1314176    5.0883748  
  52 H       8.7684808    7.4491530    6.3884661    6.9223564    8.3376530  
  53 H      10.7330019    9.5031608    8.2861673    8.5017107    9.8730729  
  54 H      10.9047479    9.8696996    8.5027755    8.2996528    9.5251329  
  55 H       9.1830633    8.3501455    6.9355930    6.4113295    7.4813399  
  56 H       7.6667800    6.3888963    6.3013201    7.5548531    8.6638890  
  57 H       9.5220923    8.2764552    8.3493001    9.6850779   10.7684911  
  58 H       9.0143393    7.8568052    8.0929972    9.4581478   10.4377503  
  59 H       9.9404601    8.6686176    8.6246086    9.9002835   11.0330153  
  60 H       8.8751639    7.5050125    7.1576739    8.3176742    9.5757248  
  61 H       9.2910877    7.9135027    7.4809590    8.5804194    9.8712111  
  62 H       7.7403597    6.3439457    5.8121878    6.8894068    8.1985893  
  63 H       5.2206689    4.3662636    5.1857643    6.5766771    7.1607707  
  64 H       8.1943779    7.2505114    7.8500466    9.2651217   10.0139039  
  65 H       7.6027238    6.7481201    7.4606323    8.8642732    9.5210958  
  66 H       7.3750049    6.6832183    7.5682527    8.9499032    9.4663064  
  67 H       6.9122871    5.9397685    6.4120059    7.7396540    8.5038757  
  68 H       6.0227012    5.3415196    6.1776714    7.4764134    7.9671488  
  69 H       5.1350914    4.1776655    4.7186254    6.0254805    6.7177704  
  70 H       6.4054575    5.3748166    5.7458544    7.0492874    7.8552644  
  71 H       7.9354737    6.6378264    6.3246724    7.4396868    8.6182403  
  72 H       6.3161311    5.0818385    4.8130780    5.9098990    6.9975802  
  73 H       7.7340132    6.6041679    6.4903634    7.5685018    8.5691520  
  74 H       9.1165625    7.9060661    7.9731192    9.2677434   10.3176245  
  75 H       8.8662851    7.8042084    8.0268454    9.2872693   10.1906889  
  76 H       8.6103737    7.5582780    7.9439694    9.3119125   10.1783013  
  77 H       6.5279913    7.0151654    6.3716522    4.9906080    4.2787809  
  78 H       8.8818072    9.4471379    8.8105176    7.4144133    6.6809433  
  79 H      10.4782948   10.5483328    9.4746243    8.1398971    8.0596575  
  80 H       8.5664620    8.4314756    7.2539254    6.0076808    6.2077043  
  81 H      11.1347324   11.6266231   10.8789577    9.4623887    8.8557598  
  82 H      11.4584955   11.8418534   10.9959895    9.5865509    9.1147088  
  83 H      11.7067471   11.9976950   11.0726607    9.6768284    9.3225696  

               11 C         12 C         13 C         14 C         15 C     

   1 C       4.2445207    5.1068950    4.9115999    3.7509077    6.4914490  
   2 C       5.6496728    6.4809996    6.1710659    4.9035861    7.8762979  
   3 C       6.4631850    7.4707630    7.3410671    6.1541762    8.8234852  
   4 C       6.1507540    7.3372961    7.4751951    6.4677554    8.5990413  
   5 C       4.9007165    6.1676934    6.4858534    5.6551632    7.3617416  
   6 C       3.7467258    4.9075901    5.1115227    4.2499804    6.1798700  
   7 C       2.4643616 *  3.7563323    4.2557087    3.7430829    4.9254015  
   8 C       1.4151439 *  2.4564700 *  2.8405683 *  2.4562290 *  3.7537858  
   9 C       2.4516860 *  2.8359880 *  2.4593326 *  1.4183348 *  4.2500764  
  10 C       3.7376267    4.2514737    3.7602972    2.4681056 *  5.6656104  
  11 C       0.0000000    1.4152318 *  2.4539248 *  2.8278167 *  2.4611477 *
  12 C       1.4152318 *  0.0000000    1.4189663 *  2.4524159 *  1.4141601 *
  13 C       2.4539248 *  1.4189663 *  0.0000000    1.4170721 *  2.4431212 *
  14 C       2.8278167 *  2.4524159 *  1.4170721 *  0.0000000    3.7386434  
  15 C       2.4611477 *  1.4141601 *  2.4431212 *  3.7386434    0.0000000  
  16 C       3.7425784    2.4493197 *  2.8311873 *  4.2482293    1.3957526 *
  17 C       4.2436613    2.8284951 *  2.4532691 *  3.7525040    2.4251445 *
  18 C       3.7391955    2.4426206 *  1.4159501 *  2.4693282 *  2.7944644 *
  19 C       4.8915951    3.7324499    4.2358803    5.6529244    2.4305701 *
  20 C       6.1426975    4.8768765    5.0817229    6.4686314    3.7048361  
  21 C       6.4584054    5.0766688    4.8835110    6.1581055    4.1980129  
  22 C       5.6486037    4.2334797    3.7398551    4.9088767    3.7050418  
  23 C       1.4487448 *  2.4722642 *  3.7732811    4.2755816    2.8522973 *
  24 C       2.6510850 *  3.5557407    4.9169158    5.4773395    3.5937851  
  25 SI      4.4632859    5.2917928    6.6836974    7.2890871    5.0683083  
  26 C       5.3878649    5.8546940    7.2612677    8.1108469    5.2320196  
  27 C       6.8772951    7.3818879    8.7905637    9.6275143    6.7285759  
  28 C       5.3807077    5.4915179    6.8537485    7.9042548    4.5584617  
  29 C       5.2470408    6.3704991    7.6615431    7.9749969    6.4697927  
  30 C       6.7417549    7.8398023    9.1511621    9.4774094    7.8486093  
  31 C       5.2999366    6.4017927    7.6239907    7.8863993    6.5646144  
  32 C       5.1807671    5.9271773    7.2504095    7.8491653    5.6766323  
  33 C       4.8499065    5.2939667    6.5407977    7.2778403    4.8924395  
  34 C       6.6822557    7.3627296    8.7024519    9.3580492    6.9666866  
  35 C       4.2789098    3.7814593    2.4850050 *  1.4511261 *  4.9280855  
  36 C       5.4835784    4.9438064    3.5914949    2.6559245 *  6.0143101  
  37 C       6.9192250    6.3567082    4.9794138    4.0921971    7.3692185  
  38 C       7.6601379    7.2853774    5.9769606    4.9053795    8.4014974  
  39 C       9.0501384    8.6342350    7.2967473    6.2775031    9.7055233  
  40 C       9.7236567    9.1409737    7.7458803    6.8980022   10.0871972  
  41 C       9.1444321    8.4131133    6.9984340    6.3381901    9.2393692  
  42 C       7.7698098    7.0205413    5.6076519    4.9815213    7.8570821  
  43 C      11.2228516   10.6319414    9.2321263    8.3975905   11.5538117  
  44 H       6.2754505    6.9275741    6.4027665    5.0378869    8.3410979  
  45 H       7.5289504    8.5011148    8.2959283    7.0524640    9.8677194  
  46 H       7.0498745    8.2926602    8.5058061    7.5337032    9.5101580  
  47 H       5.0365856    6.4003386    6.9328860    6.2815843    7.4611627  
  48 H       2.7145155 *  4.1235372    4.9069853    4.6294504    5.0722864  
  49 H       4.6251493    4.9048296    4.1291911    2.7187177 *  6.2979227  
  50 H       2.7103232 *  2.1765584 *  3.4312625    4.6237179    1.0812487 *
  51 H       4.6264138    3.4320236    2.1783047 *  2.7198260 *  3.8772279  
  52 H       5.0228081    4.0903450    4.8804276    6.2758903    2.6796424 *
  53 H       7.0393475    5.8380523    6.1377519    7.5338526    4.5786264  
  54 H       7.5245989    6.1334054    5.8463506    7.0583834    5.2801762  
  55 H       6.2771973    4.8811475    4.1007922    5.0467158    4.5890703  
  56 H       5.2519671    5.7135893    7.0728935    7.8864158    5.1606242  
  57 H       7.3022019    7.7995656    9.2147401   10.0654530    7.1154796  
  58 H       7.1958117    7.8604943    9.2603894    9.9759316    7.3649070  
  59 H       7.5155672    7.8729144    9.2527616   10.1767677    7.0874984  
  60 H       5.8800785    5.9800493    7.3274138    8.3866052    5.0242089  
  61 H       6.1675415    6.1332300    7.4341027    8.5568911    5.0788819  
  62 H       4.4650768    4.4359495    5.7750620    6.8700605    3.4537623  
  63 H       4.9643320    6.2155764    7.4168685    7.5662809    6.5234914  
  64 H       7.2739354    8.2578775    9.6138015   10.0582279    8.1044689  
  65 H       7.0204645    8.1032191    9.4117048    9.7437862    8.0940300  
  66 H       7.3124766    8.5016697    9.7531178    9.9473922    8.6419643  
  67 H       5.8746091    6.8170793    8.0803566    8.4827827    6.7825782  
  68 H       6.0308677    7.2181501    8.3590784    8.4686814    7.5137077  
  69 H       4.3920242    5.4944849    6.6530558    6.8760500    5.7728052  
  70 H       5.1741487    6.0952573    7.3359444    7.7457269    6.0912508  
  71 H       5.1881563    5.3987188    6.6680870    7.5819568    4.7135733  
  72 H       3.8705155    4.3079541    5.5043307    6.1975026    4.0641978  
  73 H       5.6373542    6.0497728    7.1916964    7.8719456    5.6957680  
  74 H       6.9831266    7.4944493    8.8577316    9.6552638    6.8970043  
  75 H       7.2494840    7.9016109    9.1774080    9.7990744    7.5363960  
  76 H       7.2064145    8.0143973    9.3711453    9.9476193    7.6998539  
  77 H       7.3036058    7.1097536    5.9075648    4.7020023    8.3193787  
  78 H       9.7048411    9.3972812    8.1058724    7.0062861   10.5231512  
  79 H       9.8661459    9.0387142    7.6286679    7.1077235    9.7534309  
  80 H       7.5083001    6.6206538    5.2258226    4.8437882    7.3141477  
  81 H      11.6516649   11.1646525    9.7916734    8.8536022   12.1607044  
  82 H      11.6632734   11.0673256    9.6694964    8.8465536   11.9767733  
  83 H      11.6476460   10.9574624    9.5465192    8.8314661   11.7870487  

               16 C         17 C         18 C         19 C         20 C     

   1 C       7.4928262    7.3647999    6.1904366    8.8310514    9.8892089  
   2 C       8.8349782    8.6147235    7.3727853   10.1906505   11.2097740  
   3 C       9.8881375    9.7942569    8.6095052   11.2031979   12.2973268  
   4 C       9.7866102    9.8927001    8.8328446   11.0245789   12.2141560  
   5 C       8.6052910    8.8373315    7.8846703    9.7922361   11.0258895  
   6 C       7.3569044    7.4962147    6.5000311    8.6010333    9.7844458  
   7 C       6.1794797    6.4953391    5.6715237    7.3559133    8.5951494  
   8 C       4.9057786    5.1095969    4.2563130    6.1614093    7.3333160  
   9 C       5.1080628    4.9125608    3.7621521    6.4800987    7.4726634  
  10 C       6.4959839    6.1904411    4.9372637    7.8786689    8.8303691  
  11 C       3.7425784    4.2436613    3.7391955    4.8915951    6.1426975  
  12 C       2.4493197 *  2.8284951 *  2.4426206 *  3.7324499    4.8768765  
  13 C       2.8311873 *  2.4532691 *  1.4159501 *  4.2358803    5.0817229  
  14 C       4.2482293    3.7525040    2.4693282 *  5.6529244    6.4686314  
  15 C       1.3957526 *  2.4251445 *  2.7944644 *  2.4305701 *  3.7048361  
  16 C       0.0000000    1.4089067 *  2.4296851 *  1.4046962 *  2.4275652 *
  17 C       1.4089067 *  0.0000000    1.4008334 *  2.4350744 *  2.8075567 *
  18 C       2.4296851 *  1.4008334 *  0.0000000    3.7125981    4.2083588  
  19 C       1.4046962 *  2.4350744 *  3.7125981    0.0000000    1.3965030 *
  20 C       2.4275652 *  2.8075567 *  4.2083588    1.3965030 *  0.0000000  
  21 C       2.8022794 *  2.4302522 *  3.7150074    2.4203252 *  1.3968226 *
  22 C       2.4308406 *  1.4050347 *  2.4395718 *  2.8005104 *  2.4231230 *
  23 C       4.2473674    5.1106032    4.9139065    5.0882816    6.4551504  
  24 C       4.9372345    5.9863407    5.9695204    5.5175640    6.9133069  
  25 SI      6.2886333    7.4903121    7.6498880    6.5557741    7.9214773  
  26 C       6.1999390    7.5344205    7.9821631    6.1088179    7.3707107  
  27 C       7.6310541    8.9924480    9.4946645    7.3997735    8.5838506  
  28 C       5.2763108    6.6730696    7.3410813    4.9307026    6.1081051  
  29 C       7.7874105    8.8691072    8.8068993    8.2209131    9.6065899  
  30 C       9.1255597   10.2678146   10.2716200    9.4353216   10.7996316  
  31 C       7.8595391    8.8795488    8.7693068    8.3394458    9.7035333  
  32 C       6.7993477    7.9701007    8.1574607    7.0052703    8.3047841  
  33 C       5.8477420    6.9862242    7.2773513    5.9935613    7.2149065  
  34 C       7.9843693    9.2244068    9.5338112    7.9873977    9.2150795  
  35 C       5.1364187    4.2811495    2.8804010 *  6.5080242    7.0886896  
  36 C       6.0575680    5.0245407    3.6675944    7.3784868    7.7939980  
  37 C       7.2829222    6.1279897    4.8547911    8.5435769    8.8029219  
  38 C       8.4380248    7.3485936    6.0364406    9.7332158   10.0552131  
  39 C       9.6493293    8.4844481    7.2293474   10.9004037   11.1116820  
  40 C       9.8521978    8.5843379    7.4411045   11.0174851   11.0645969  
  41 C       8.8780015    7.5611042    6.5136516    9.9777978    9.9368914  
  42 C       7.5427838    6.2590363    5.1568529    8.6865431    8.7388052  
  43 C      11.2666843    9.9673269    8.8738909   12.3916935   12.3575116  
  44 H       9.1738667    8.7899859    7.4726832   10.5608518   11.4844118  
  45 H      10.9011728   10.7461843    9.5207105   12.2316369   13.2986868  
  46 H      10.7377233   10.9050849    9.8769465   11.9406556   13.1623196  
  47 H       8.7782591    9.1737836    8.3484821    9.8698356   11.1643880  
  48 H       6.4196205    6.9474669    6.2998853    7.4618229    8.7759514  
  49 H       6.9542851    6.4370790    5.0883927    8.3575617    9.1834466  
  50 H       2.1276079 *  3.3919106    3.8753421    2.6246710 *  4.0163666  
  51 H       3.3997654    2.1369492 *  1.0830942 *  4.5696057    4.8192301  
  52 H       2.1691008 *  3.4228242    4.5950259    1.0840574 *  2.1445557 *
  53 H       3.4076345    3.8900051    5.2908044    2.1513082 *  1.0824489 *
  54 H       3.8844463    3.4103636    4.5899889    3.3993044    2.1508007 *
  55 H       3.4188669    2.1684117 *  2.6890626 *  3.8836414    3.3976892  
  56 H       6.1278258    7.4050652    7.8028744    6.1089857    7.3615024  
  57 H       7.9914837    9.3683556    9.9017103    7.7071064    8.8652213  
  58 H       8.3659887    9.6856751   10.0729565    8.2546187    9.4794641  
  59 H       7.8436404    9.2195330    9.8377954    7.4522558    8.5329537  
  60 H       5.6785979    7.0728239    7.7801763    5.2516623    6.3649741  
  61 H       5.5906769    6.9840000    7.7813450    5.0303006    6.0597602  
  62 H       4.1909364    5.5797163    6.2329637    3.9615330    5.2202520  
  63 H       7.8910182    8.8631533    8.6504967    8.4762800    9.8719901  
  64 H       9.3077356   10.5226482   10.6504954    9.4731065   10.8001790  
  65 H       9.3548757   10.5015191   10.5194321    9.6422961   10.9951290  
  66 H       9.9565219   11.0389197   10.9412629   10.3490628   11.7254174  
  67 H       7.9850699    9.0831923    9.1168162    8.3043905    9.6268406  
  68 H       8.8288087    9.7806390    9.5663661    9.3764817   10.7399429  
  69 H       7.0752278    8.0054549    7.8160007    7.6742468    9.0305500  
  70 H       7.2921389    8.3487180    8.3607847    7.6712299    8.9884940  
  71 H       5.4980511    6.7374913    7.2349147    5.3990044    6.5609126  
  72 H       5.0882992    6.1246793    6.2932453    5.4485515    6.7021798  
  73 H       6.5559714    7.6116990    7.8847728    6.6812234    7.8124866  
  74 H       7.7879354    9.0968197    9.5624338    7.6031136    8.7640443  
  75 H       8.5029359    9.6895782    9.9833158    8.5079037    9.6837702  
  76 H       8.7870780   10.0306827   10.2822143    8.8286433   10.0888878  
  77 H       8.5208222    7.5570983    6.1992935    9.8613458   10.3152561  
  78 H      10.5422131    9.4202528    8.1401719   11.8155120   12.0723457  
  79 H       9.2633470    7.9032381    6.9880809   10.2684560   10.0918005  
  80 H       6.8693084    5.5466003    4.5760705    7.9365781    7.9016113  
  81 H      11.9639962   10.7052160    9.5523666   13.1341663   13.1705851  
  82 H      11.6724494   10.3666621    9.2929908   12.7821638   12.7229149  
  83 H      11.3906009   10.0519262    9.0541776   12.4426272   12.3022354  

               21 C         22 C         23 C         24 C         25 SI    

   1 C       9.7949559    8.6177957    5.1302996    6.0494810    7.5756816  
   2 C      11.0401847    9.8123062    6.5009871    7.3686856    8.8142252  
   3 C      12.2243897   11.0418160    7.0790994    7.7814790    9.0269401  
   4 C      12.3003576   11.2149049    6.4908674    7.0154082    8.0682010  
   5 C      11.2080228   10.1982471    5.1242292    5.6186193    6.6953236  
   6 C       9.8902601    8.8402753    4.2735398    5.0154837    6.3912859  
   7 C       8.8243751    7.8813235    2.8748251 *  3.6611076    5.1484974  
   8 C       7.4711962    6.4851347    2.4824606 *  3.5872481    5.3278537  
   9 C       7.3427584    6.1753017    3.7789332    4.9392139    6.7121702  
  10 C       8.6114259    7.3767914    4.9249778    6.0091859    7.7030256  
  11 C       6.4584054    5.6486037    1.4487448 *  2.6510850 *  4.4632859  
  12 C       5.0766688    4.2334797    2.4722642 *  3.5557407    5.2917928  
  13 C       4.8835110    3.7398551    3.7732811    4.9169158    6.6836974  
  14 C       6.1581055    4.9088767    4.2755816    5.4773395    7.2890871  
  15 C       4.1980129    3.7050418    2.8522973 *  3.5937851    5.0683083  
  16 C       2.8022794 *  2.4308406 *  4.2473674    4.9372345    6.2886333  
  17 C       2.4302522 *  1.4050347 *  5.1106032    5.9863407    7.4903121  
  18 C       3.7150074    2.4395718 *  4.9139065    5.9695204    7.6498880  
  19 C       2.4203252 *  2.8005104 *  5.0882816    5.5175640    6.5557741  
  20 C       1.3968226 *  2.4231230 *  6.4551504    6.9133069    7.9214773  
  21 C       0.0000000    1.3984475 *  7.0489463    7.6918388    8.8979306  
  22 C       1.3984475 *  0.0000000    6.4785039    7.2969024    8.7126793  
  23 C       7.0489463    6.4785039    0.0000000    1.2025055 *  3.0146558  
  24 C       7.6918388    7.2969024    1.2025055 *  0.0000000    1.8122016 *
  25 SI      8.8979306    8.7126793    3.0146558    1.8122016 *  0.0000000  
  26 C       8.5152341    8.5888936    4.0585606    3.0254776    1.9123703 *
  27 C       9.8046208    9.9880492    5.5071893    4.3984499    2.8862619 *
  28 C       7.3385531    7.5820890    4.2367851    3.4427373    2.8721901 *
  29 C      10.4963140   10.1706289    3.9185056    2.9202452 *  1.9055396 *
  30 C      11.7735516   11.5369991    5.3856085    4.3191846    2.9037869 *
  31 C      10.5416802   10.1760599    4.1366638    3.3592627    2.8101517 *
  32 C       9.2789031    9.1343634    3.8682013    2.8795804 *  1.9219197 *
  33 C       8.1555768    8.0584829    3.7756765    3.1142937    2.8855565 *
  34 C      10.2982159   10.3052834    5.3425561    4.2830353    2.9051733 *
  35 C       6.5019703    5.1351524    5.7266671    6.9283332    8.7399316  
  36 C       7.0291109    5.6313916    6.9312967    8.1329788    9.9444946  
  37 C       7.8834366    6.4987099    8.3671247    9.5690441   11.3806746  
  38 C       9.1696133    7.7843647    9.0937355   10.2896532   12.0926495  
  39 C      10.1268734    8.7680709   10.4864699   11.6835685   13.4877898  
  40 C       9.9632399    8.6575555   11.1715696   12.3737301   14.1854235  
  41 C       8.7909976    7.5191274   10.5816473   11.7744713   13.5768181  
  42 C       7.6682606    6.3441304    9.2017658   10.3911612   12.1902380  
  43 C      11.1969049    9.9370328   12.6707661   13.8729831   15.6846882  
  44 H      11.1844591    9.8942494    7.2705457    8.2157313    9.7372249  
  45 H      13.1748684   11.9597604    8.1614748    8.8550561   10.0679182  
  46 H      13.2998510   12.2421749    7.2429804    7.6366563    8.5034727  
  47 H      11.4769345   10.5640321    4.9470677    5.2139257    6.0435225  
  48 H       9.1671424    8.3517582    2.5350164 *  2.9944653 *  4.2605075  
  49 H       8.8030406    7.4920412    5.9000999    7.0191130    8.7415476  
  50 H       4.8007777    4.5564274    2.5090996 *  2.9116685 *  4.1636863  
  51 H       4.0362341    2.6429126 *  5.8906567    6.9846041    8.6939675  
  52 H       3.3963072    3.8844572    4.9046094    5.0995333    5.8836234  
  53 H       2.1530428 *  3.4034516    7.2028642    7.5247658    8.3385793  
  54 H       1.0821710 *  2.1538700 *  8.1309223    8.7633003    9.9329532  
  55 H       2.1453861 *  1.0832766 *  7.2525518    8.1529421    9.6463699  
  56 H       8.4469832    8.4683585    4.0323924    3.1577561    2.4549428 *
  57 H      10.1137739   10.3399753    5.9069630    4.7635255    3.1367570  
  58 H      10.6536155   10.7483266    5.8045514    4.6722314    3.0741978  
  59 H       9.8031010   10.1105415    6.2218397    5.1974369    3.8678096  
  60 H       7.6239265    7.9310878    4.7217326    3.8890963    3.1481803  
  61 H       7.3547623    7.7544955    5.1241149    4.4119231    3.8543453  
  62 H       6.3798234    6.5319419    3.4840729    2.9497463 *  3.0176141  
  63 H      10.6594798   10.2110596    3.7663721    2.9706152 *  2.4703834 *
  64 H      11.8555449   11.7334493    5.8757529    4.7463457    3.1390979  
  65 H      11.9781417   11.7584069    5.6607656    4.5866478    3.1330693  
  66 H      12.6509989   12.3423875    6.0441526    5.0820292    3.8763564  
  67 H      10.5499916   10.3096129    4.6781591    3.8275457    3.0289651  
  68 H      11.5307270   11.0999562    4.9828659    4.3113328    3.8123025  
  69 H       9.7724569    9.3191718    3.3852045    2.8692752 *  2.9620992 *
  70 H       9.8571571    9.5756374    3.9572653    3.1111374    2.4649720 *
  71 H       7.6191537    7.6981481    4.1341793    3.4660403    3.1467299  
  72 H       7.5111114    7.2639154    2.9710143 *  2.6199481 *  3.0648246  
  73 H       8.7077123    8.6213426    4.6897000    4.1242509    3.8710657  
  74 H       9.9345891   10.0853393    5.6461434    4.5804679    3.1729291  
  75 H      10.7305713   10.7360893    6.0021078    5.0482186    3.8800585  
  76 H      11.1791961   11.1560464    5.8135526    4.6856481    3.0896479  
  77 H       9.5434252    8.1551778    8.7007870    9.8768373   11.6561684  
  78 H      11.1163342    9.7544934   11.1199970   12.3048453   14.0932963  
  79 H       8.8707496    7.6830917   11.2846938   12.4635607   14.2501765  
  80 H       6.7930515    5.5083111    8.9019742   10.0655426   11.8370427  
  81 H      12.0499183   10.7626377   13.0934193   14.2931676   16.1007054  
  82 H      11.5475445   10.3052611   13.1030923   14.2998396   16.1047019  
  83 H      11.0862606    9.8891507   13.0943750   14.2940896   16.1039921  

               26 C         27 C         28 C         29 C         30 C     

   1 C       8.9566534   10.2735803    9.3534345    7.3700934    8.7053156  
   2 C      10.2506113   11.5205324   10.7134946    8.4304261    9.6794516  
   3 C      10.5645694   11.7179476   11.1947788    8.3633087    9.4674957  
   4 C       9.6665878   10.7180331   10.4287668    7.2204616    8.2298169  
   5 C       8.2858378    9.3674032    9.0315932    5.9469577    7.0552384  
   6 C       7.8673381    9.1057582    8.4126260    6.0290643    7.3267021  
   7 C       6.5599328    7.8574273    7.0339737    5.0541384    6.4590888  
   8 C       6.4857880    7.9169181    6.6668082    5.6941447    7.1775142  
   9 C       7.7790210    9.2444904    7.8277609    7.1079706    8.5897778  
  10 C       8.9101086   10.3265318    9.0908496    7.8226598    9.2506020  
  11 C       5.3878649    6.8772951    5.3807077    5.2470408    6.7417549  
  12 C       5.8546940    7.3818879    5.4915179    6.3704991    7.8398023  
  13 C       7.2612677    8.7905637    6.8537485    7.6615431    9.1511621  
  14 C       8.1108469    9.6275143    7.9042548    7.9749969    9.4774094  
  15 C       5.2320196    6.7285759    4.5584617    6.4697927    7.8486093  
  16 C       6.1999390    7.6310541    5.2763108    7.7874105    9.1255597  
  17 C       7.5344205    8.9924480    6.6730696    8.8691072   10.2678146  
  18 C       7.9821631    9.4946645    7.3410813    8.8068993   10.2716200  
  19 C       6.1088179    7.3997735    4.9307026    8.2209131    9.4353216  
  20 C       7.3707107    8.5838506    6.1081051    9.6065899   10.7996316  
  21 C       8.5152341    9.8046208    7.3385531   10.4963140   11.7735516  
  22 C       8.5888936    9.9880492    7.5820890   10.1706289   11.5369991  
  23 C       4.0585606    5.5071893    4.2367851    3.9185056    5.3856085  
  24 C       3.0254776    4.3984499    3.4427373    2.9202452 *  4.3191846  
  25 SI      1.9123703 *  2.8862619 *  2.8721901 *  1.9055396 *  2.9037869 *
  26 C       0.0000000    1.5312668 *  1.5287990 *  3.2730385    3.9027014  
  27 C       1.5312668 *  0.0000000    2.5082491 *  3.7460658    3.7640444  
  28 C       1.5287990 *  2.5082491 *  0.0000000    4.5923124    5.2915461  
  29 C       3.2730385    3.7460658    4.5923124    0.0000000    1.5297774 *
  30 C       3.9027014    3.7640444    5.2915461    1.5297774 *  0.0000000  
  31 C       3.5909514    4.1298025    4.9775297    1.5320032 *  2.5100925 *
  32 C       3.2446550    3.8284549    3.6422247    3.0991524    3.5726901  
  33 C       3.8302435    4.6497465    3.6011386    4.4165366    5.0826232  
  34 C       3.6513082    3.6159552    4.0580094    3.8043548    3.6655673  
  35 C       9.5322600   11.0543126    9.2696299    9.3961124   10.8980061  
  36 C      10.7226026   12.2470913   10.4281652   10.5781651   12.0785246  
  37 C      12.1466961   13.6728084   11.8285655   11.9860862   13.4846783  
  38 C      12.9328108   14.4441729   12.7464071   12.5072558   13.9954482  
  39 C      14.3128796   15.8271200   14.0980556   13.8986861   15.3839658  
  40 C      14.9366176   16.4642319   14.5884771   14.7477873   16.2420815  
  41 C      14.2559257   15.7864218   13.7883326   14.3017933   15.7972305  
  42 C      12.8681464   14.3979343   12.4014903   12.9520144   14.4467422  
  43 C      16.4283081   17.9564097   16.0672562   16.2315899   17.7238807  
  44 H      11.1191451   12.4336658   11.4956507    9.4459174   10.7241109  
  45 H      11.6186407   12.7473436   12.2708437    9.3329027   10.3776671  
  46 H      10.1383633   11.0780716   11.0096089    7.4517974    8.2984866  
  47 H       7.6834426    8.6499742    8.5584269    5.0883847    6.0919074  
  48 H       5.7792059    6.9858761    6.4157945    3.9984624    5.3818773  
  49 H       9.8964713   11.3357612   10.0022098    8.9022908   10.3334742  
  50 H       4.1912933    5.6710215    3.4831475    5.7020647    7.0076566  
  51 H       9.0582945   10.5729792    8.4196978    9.7903728   11.2691613  
  52 H       5.2478037    6.4548213    3.9690205    7.6258248    8.7422518  
  53 H       7.5897321    8.6678941    6.2243261   10.0876214   11.1881313  
  54 H       9.4789990   10.7211870    8.2512330   11.5538726   12.8130092  
  55 H       9.6026909   11.0230614    8.6375576   11.0358079   12.4355207  
  56 H       1.1114401 *  2.1430610 *  2.1423202 *  3.4232803    4.2106318  
  57 H       2.1977479 *  1.1053350 *  2.8123854 *  4.0931336    3.8953434  
  58 H       2.1814833 *  1.1048553 *  3.4737972    3.3182363    3.0804683  
  59 H       2.1769955 *  1.1109625 *  2.7221008 *  4.7523073    4.7710481  
  60 H       2.1852134 *  2.7654467 *  1.1063305 *  4.9381777    5.4624555  
  61 H       2.1738100 *  2.7451621 *  1.1112294 *  5.4277469    6.0357637  
  62 H       2.1809016 *  3.4790483    1.1086789 *  4.7918595    5.7517906  
  63 H       4.1585220    4.7644022    5.3211292    1.1116818 *  2.1395182 *
  64 H       3.5596923    3.0510559    4.9942486    2.1988827 *  1.1051531 *
  65 H       4.3027528    4.1153861    5.5196048    2.1779024 *  1.1045076 *
  66 H       4.8930665    4.7318375    6.3274064    2.1721987 *  1.1110000 *
  67 H       3.1713478    3.4921315    4.6204471    2.1872127 *  2.7943635 *
  68 H       4.6557947    5.0279874    6.0740044    2.1818310 *  2.7363084 *
  69 H       3.7706461    4.6498223    4.9529605    2.1860053 *  3.4818969  
  70 H       4.1297227    4.7167944    4.6631082    3.0377964    3.5043407  
  71 H       3.4969876    4.2833209    2.8864142 *  4.9104527    5.5459647  
  72 H       4.1676203    5.2509376    3.9092167    4.5373429    5.4740597  
  73 H       4.8472653    5.4984599    4.5758336    5.2137559    5.7073140  
  74 H       3.3045280    3.1003608    3.4550025    4.3661514    4.2558259  
  75 H       4.7151302    4.6769053    4.9528566    4.6973811    4.4916881  
  76 H       3.8432794    3.5132892    4.5875990    3.4462031    2.8999609 *
  77 H      12.5593834   14.0482802   12.4973207   11.9237444   13.3968888  
  78 H      14.9618254   16.4611049   14.8321155   14.3797097   15.8493526  
  79 H      14.8704125   16.3971222   14.3103439   15.0720524   16.5623662  
  80 H      12.4422367   13.9651338   11.8657614   12.7415177   14.2246561  
  81 H      16.8932449   18.4132515   16.6202582   16.5287425   18.0120792  
  82 H      16.9034820   18.4308922   16.5044981   16.6899243   18.1651619  
  83 H      16.7322134   18.2614926   16.3121001   16.7186414   18.2275015  

               31 C         32 C         33 C         34 C         35 C     

   1 C       7.2318555    8.1341111    8.1427118    9.6119996    4.2661487  
   2 C       8.2592977    9.3305042    9.3995632   10.7728939    5.1130402  
   3 C       8.1973091    9.5243472    9.7865321   10.8835770    6.4802751  
   4 C       7.0939482    8.5786908    9.0165534    9.8648310    7.0714254  
   5 C       5.8653277    7.2607499    7.7008124    8.5823083    6.4965762  
   6 C       5.9407786    6.9904156    7.1877587    8.4281455    5.1267186  
   7 C       5.0339748    5.8229967    5.9623618    7.3013821    4.9251640  
   8 C       5.6670922    5.9943303    5.8119210    7.5196225    3.7805520  
   9 C       7.0162331    7.3065317    6.9685881    8.8369515    2.4800938 *
  10 C       7.6851504    8.2620953    8.0399767    9.7839110    2.8674591 *
  11 C       5.2999366    5.1807671    4.8499065    6.6822557    4.2789098  
  12 C       6.4017927    5.9271773    5.2939667    7.3627296    3.7814593  
  13 C       7.6239907    7.2504095    6.5407977    8.7024519    2.4850050 *
  14 C       7.8863993    7.8491653    7.2778403    9.3580492    1.4511261 *
  15 C       6.5646144    5.6766323    4.8924395    6.9666866    4.9280855  
  16 C       7.8595391    6.7993477    5.8477420    7.9843693    5.1364187  
  17 C       8.8795488    7.9701007    6.9862242    9.2244068    4.2811495  
  18 C       8.7693068    8.1574607    7.2773513    9.5338112    2.8804010 *
  19 C       8.3394458    7.0052703    5.9935613    7.9873977    6.5080242  
  20 C       9.7035333    8.3047841    7.2149065    9.2150795    7.0886896  
  21 C      10.5416802    9.2789031    8.1555768   10.2982159    6.5019703  
  22 C      10.1760599    9.1343634    8.0584829   10.3052834    5.1351524  
  23 C       4.1366638    3.8682013    3.7756765    5.3425561    5.7266671  
  24 C       3.3592627    2.8795804 *  3.1142937    4.2830353    6.9283332  
  25 SI      2.8101517 *  1.9219197 *  2.8855565 *  2.9051733 *  8.7399316  
  26 C       3.5909514    3.2446550    3.8302435    3.6513082    9.5322600  
  27 C       4.1298025    3.8284549    4.6497465    3.6159552   11.0543126  
  28 C       4.9775297    3.6422247    3.6011386    4.0580094    9.2696299  
  29 C       1.5320032 *  3.0991524    4.4165366    3.8043548    9.3961124  
  30 C       2.5100925 *  3.5726901    5.0826232    3.6655673   10.8980061  
  31 C       0.0000000    4.4419187    5.5953709    5.1870365    9.2651771  
  32 C       4.4419187    0.0000000    1.5397079 *  1.5308317 *  9.2575918  
  33 C       5.5953709    1.5397079 *  0.0000000    2.4966356 *  8.6230204  
  34 C       5.1870365    1.5308317 *  2.4966356 *  0.0000000   10.7639211  
  35 C       9.2651771    9.2575918    8.6230204   10.7639211    0.0000000  
  36 C      10.4212676   10.4348778    9.7642081   11.9389965    1.2049613 *
  37 C      11.7995793   11.8522469   11.1550547   13.3545965    2.6417040 *
  38 C      12.2286108   12.6452001   12.0722746   14.1675533    3.5326505  
  39 C      13.6068653   14.0197672   13.4166732   15.5397323    4.8761308  
  40 C      14.5189495   14.6320754   13.9016610   16.1313782    5.4482883  
  41 C      14.1540595   13.9442521   13.1044019   15.4140505    4.9099061  
  42 C      12.8329423   12.5598883   11.7228432   14.0280473    3.5780951  
  43 C      15.9858935   16.1220408   15.3781551   17.6195999    6.9479953  
  44 H       9.2537865   10.2349737   10.2000644   11.6996605    4.9329468  
  45 H       9.1490808   10.5381166   10.8162436   11.8716390    7.2304397  
  46 H       7.3342827    8.9838120    9.5568182   10.1720348    8.1537904  
  47 H       5.0646541    6.6220100    7.2473460    7.8539176    7.2681957  
  48 H       4.0639661    4.9975282    5.3592132    6.4247705    5.9009498  
  49 H       8.7390091    9.2696140    8.9627430   10.7947711    2.5259027 *
  50 H       5.8732655    4.8258282    4.1207467    6.0388985    5.9012190  
  51 H       9.7199813    9.1740064    8.2739077   10.5642153    2.5408010 *
  52 H       7.7999017    6.3368719    5.3886607    7.1943051    7.2753915  
  53 H      10.2116847    8.6772384    7.5849868    9.4381480    8.1711315  
  54 H      11.5925754   10.2796555    9.1197582   11.2497924    7.2555719  
  55 H      11.0088105   10.0559332    8.9728927   11.2684394    4.9598489  
  56 H       3.2439316    4.1306053    4.7127336    4.6795752    9.2817690  
  57 H       4.8054260    3.4793773    4.2758489    2.8803005 * 11.4968356  
  58 H       3.5590772    4.1813544    5.2635033    3.9573576   11.4109843  
  59 H       4.9158241    4.8375512    5.4841920    4.5761211   11.5733805  
  60 H       5.6036353    3.2938782    3.0709520    3.4552488    9.7444075  
  61 H       5.6179612    4.7078234    4.6573266    4.9557818    9.8751177  
  62 H       5.0940940    3.8255977    3.5062367    4.5860585    8.2116961  
  63 H       2.1558251 *  3.2191405    4.4489832    4.1216077    8.9530676  
  64 H       2.8130388 *  3.9601924    5.4204259    3.7908333   11.4938223  
  65 H       3.4739858    3.1491902    4.6852765    3.0095981   11.1609327  
  66 H       2.7228249 *  4.5649089    6.0710133    4.6793512   11.3332519  
  67 H       1.1112191 *  4.7840631    5.9142387    5.3301792    9.8650128  
  68 H       1.1108809 *  5.2673550    6.5031541    5.9346766    9.7970484  
  69 H       1.1109253 *  4.6704742    5.5860116    5.6677711    8.2334366  
  70 H       4.4746794    1.1113275 *  2.1412246 *  2.1636519 *  9.1263529  
  71 H       5.9502706    2.2070411 *  1.1048010 *  2.7872185 *  8.9140904  
  72 H       5.5651538    2.2017769 *  1.1088239 *  3.4775489    7.5301733  
  73 H       6.5066474    2.1857235 *  1.1106524 *  2.7182727 *  9.1519735  
  74 H       5.5775464    2.1822348 *  2.7368327 *  1.1071851 * 11.0594840  
  75 H       6.1503587    2.1719909 *  2.7223106 *  1.1113600 * 11.1629495  
  76 H       4.8268327    2.2014687 *  3.4818153    1.1023136 * 11.3723535  
  77 H      11.5859231   12.2849416   11.8351347   13.8151787    3.4987353  
  78 H      14.0297182   14.6757862   14.1541573   16.2033830    5.6659762  
  79 H      14.9673291   14.5528159   13.6292658   15.9940225    5.7221461  
  80 H      12.6964349   12.1298381   11.1946462   13.5611909    3.5814083  
  81 H      16.2268707   16.5941388   15.9325057   18.1073491    7.4244079  
  82 H      16.5353489   16.4189416   15.6173890   17.9009437    7.4052270  
  83 H      16.4275762   16.5982973   15.8232483   18.0859707    7.3893025  

               36 C         37 C         38 C         39 C         40 C     

   1 C       4.9635692    5.9861308    5.9817687    7.2448292    8.3310924  
   2 C       5.5523925    6.3127923    6.0175201    7.1253644    8.3134915  
   3 C       6.9494899    7.6911204    7.3256749    8.3651820    9.5881932  
   4 C       7.7247122    8.6334152    8.4119117    9.5374856   10.7301735  
   5 C       7.3237707    8.4079608    8.3958605    9.6361735   10.7535005  
   6 C       6.0096295    7.1663209    7.2827267    8.5832832    9.6344425  
   7 C       5.9861962    7.2967261    7.6488208    9.0154129    9.9501071  
   8 C       4.9279663    6.3162397    6.8611207    8.2544112    9.0672805  
   9 C       3.5669126    4.9253501    5.4485945    6.8402917    7.6568956  
  10 C       3.6142065    4.7377186    4.9252813    6.2638444    7.2488577  
  11 C       5.4835784    6.9192250    7.6601379    9.0501384    9.7236567  
  12 C       4.9438064    6.3567082    7.2853774    8.6342350    9.1409737  
  13 C       3.5914949    4.9794138    5.9769606    7.2967473    7.7458803  
  14 C       2.6559245 *  4.0921971    4.9053795    6.2775031    6.8980022  
  15 C       6.0143101    7.3692185    8.4014974    9.7055233   10.0871972  
  16 C       6.0575680    7.2829222    8.4380248    9.6493293    9.8521978  
  17 C       5.0245407    6.1279897    7.3485936    8.4844481    8.5843379  
  18 C       3.6675944    4.8547911    6.0364406    7.2293474    7.4411045  
  19 C       7.3784868    8.5435769    9.7332158   10.9004037   11.0174851  
  20 C       7.7939980    8.8029219   10.0552131   11.1116820   11.0645969  
  21 C       7.0291109    7.8834366    9.1696133   10.1268734    9.9632399  
  22 C       5.6313916    6.4987099    7.7843647    8.7680709    8.6575555  
  23 C       6.9312967    8.3671247    9.0937355   10.4864699   11.1715696  
  24 C       8.1329788    9.5690441   10.2896532   11.6835685   12.3737301  
  25 SI      9.9444946   11.3806746   12.0926495   13.4877898   14.1854235  
  26 C      10.7226026   12.1466961   12.9328108   14.3128796   14.9366176  
  27 C      12.2470913   13.6728084   14.4441729   15.8271200   16.4642319  
  28 C      10.4281652   11.8285655   12.7464071   14.0980556   14.5884771  
  29 C      10.5781651   11.9860862   12.5072558   13.8986861   14.7477873  
  30 C      12.0785246   13.4846783   13.9954482   15.3839658   16.2420815  
  31 C      10.4212676   11.7995793   12.2286108   13.6068653   14.5189495  
  32 C      10.4348778   11.8522469   12.6452001   14.0197672   14.6320754  
  33 C       9.7642081   11.1550547   12.0722746   13.4166732   13.9016610  
  34 C      11.9389965   13.3545965   14.1675533   15.5397323   16.1313782  
  35 C       1.2049613 *  2.6417040 *  3.5326505    4.8761308    5.4482883  
  36 C       0.0000000    1.4371979 *  2.4511118 *  3.7338251    4.2442025  
  37 C       1.4371979 *  0.0000000    1.3998591 *  2.4242471 *  2.8070531 *
  38 C       2.4511118 *  1.3998591 *  0.0000000    1.3972932 *  2.4286859 *
  39 C       3.7338251    2.4242471 *  1.3972932 *  0.0000000    1.4040470 *
  40 C       4.2442025    2.8070531 *  2.4286859 *  1.4040470 *  0.0000000  
  41 C       3.7429043    2.4240194 *  2.7973608 *  2.4248700 *  1.4039122 *
  42 C       2.4643300 *  1.4002955 *  2.4239120 *  2.8000061 *  2.4311801 *
  43 C       5.7439393    4.3067703    3.8065905    2.5242710 *  1.4997747 *
  44 H       5.1389225    5.6850351    5.2253577    6.2322962    7.4504157  
  45 H       7.5645057    8.1481797    7.6249867    8.5315224    9.7892557  
  46 H       8.7972659    9.6781342    9.4046562   10.4878474   11.7033179  
  47 H       8.1772538    9.3289198    9.3866302   10.6531813   11.7487155  
  48 H       7.0004204    8.3376629    8.7203133   10.0911341   11.0151827  
  49 H       2.9343309 *  3.8578373    3.9100317    5.2194320    6.2377044  
  50 H       7.0225326    8.3996878    9.3930316   10.7172191   11.1383913  
  51 H       3.0007711    4.0027819    5.2579198    6.3607980    6.4632997  
  52 H       8.2238060    9.4494745   10.6011480   11.8105976   11.9898919  
  53 H       8.8680871    9.8538231   11.1119443   12.1459440   12.0590092  
  54 H       7.6520867    8.3611594    9.6596094   10.5099651   10.2163241  
  55 H       5.2283873    5.8953214    7.2013512    8.0702861    7.8372205  
  56 H      10.4563123   11.8619631   12.5870848   13.9590293   14.6255152  
  57 H      12.6921573   14.1233205   14.9392962   16.3231943   16.9232211  
  58 H      12.6072888   14.0326209   14.7153181   16.1046615   16.8215934  
  59 H      12.7479181   14.1561448   14.9545892   16.3224844   16.9226947  
  60 H      10.8970333   12.2950044   13.2628489   14.6091132   15.0516678  
  61 H      11.0042953   12.3761677   13.3098010   14.6399654   15.0957316  
  62 H       9.3585123   10.7502721   11.6919966   13.0343856   13.5005552  
  63 H      10.1117508   11.4977046   11.9679968   13.3490143   14.2284207  
  64 H      12.6858303   14.1034499   14.6535673   16.0469754   16.8780633  
  65 H      12.3386101   13.7450819   14.2989518   15.6840104   16.5032898  
  66 H      12.4888532   13.8670551   14.2774670   15.6516416   16.5813009  
  67 H      11.0247086   12.4065197   12.8784343   14.2538767   15.1306376  
  68 H      10.9179950   12.2587425   12.5757310   13.9340616   14.9216960  
  69 H       9.3784475   10.7468163   11.1670078   12.5424116   13.4552205  
  70 H      10.2836317   11.6807942   12.3986062   13.7652075   14.4310731  
  71 H      10.0492959   11.4360039   12.4212996   13.7571098   14.1780497  
  72 H       8.6664783   10.0547704   10.9695195   12.3114491   12.8001026  
  73 H      10.2498541   11.6024443   12.5397573   13.8555387   14.2952860  
  74 H      12.2356304   13.6538129   14.5295103   15.8990124   16.4356484  
  75 H      12.3094150   13.6998673   14.5359639   15.8877555   16.4401475  
  76 H      12.5582078   13.9804786   14.7188040   16.1017359   16.7651461  
  77 H       2.6751740 *  2.1608540 *  1.0836887 *  2.1484252 *  3.4065588  
  78 H       4.5938986    3.3991148    2.1443569 *  1.0828566 *  2.1665746 *
  79 H       4.6110075    3.4016146    3.8804744    3.4099782    2.1627969 *
  80 H       2.6980355 *  2.1620973 *  3.4091832    3.8835136    3.4090134  
  81 H       6.2410625    4.8312060    4.0253231    2.6305997 *  2.1695909 *
  82 H       6.2101252    4.7984456    4.4384980    3.2454219    2.1461352 *
  83 H       6.1983062    4.7873579    4.4321784    3.2427782    2.1439141 *

               41 C         42 C         43 C         44 H         45 H     

   1 C       8.3262909    7.2526454    9.6913234    2.1691331 *  3.4096534  
   2 C       8.5217837    7.6184835    9.5583815    1.0836350 *  2.1527240 *
   3 C       9.8624977    8.9963692   10.7749543    2.1444817 *  1.0824514 *
   4 C      10.8969454    9.9252888   11.9784449    3.3964713    2.1519673 *
   5 C      10.7551855    9.6581001   12.0941428    3.8838635    3.4017008  
   6 C       9.5389563    8.3863875   11.0252513    3.4215262    3.8883006  
   7 C       9.6744678    8.4140094   11.4016209    4.5935759    5.2873264  
   8 C       8.6548763    7.3364969   10.5512911    4.8807980    6.1359912  
   9 C       7.2861709    5.9974018    9.1373789    4.0964969    5.8436667  
  10 C       7.1147501    5.9687719    8.6698423    2.6846898 *  4.5849615  
  11 C       9.1444321    7.7698098   11.2228516    6.2754505    7.5289504  
  12 C       8.4131133    7.0205413   10.6319414    6.9275741    8.5011148  
  13 C       6.9984340    5.6076519    9.2321263    6.4027665    8.2959283  
  14 C       6.3381901    4.9815213    8.3975905    5.0378869    7.0524640  
  15 C       9.2393692    7.8570821   11.5538117    8.3410979    9.8677194  
  16 C       8.8780015    7.5427838   11.2666843    9.1738667   10.9011728  
  17 C       7.5611042    6.2590363    9.9673269    8.7899859   10.7461843  
  18 C       6.5136516    5.1568529    8.8738909    7.4726832    9.5207105  
  19 C       9.9777978    8.6865431   12.3916935   10.5608518   12.2316369  
  20 C       9.9368914    8.7388052   12.3575116   11.4844118   13.2986868  
  21 C       8.7909976    7.6682606   11.1969049   11.1844591   13.1748684  
  22 C       7.5191274    6.3441304    9.9370328    9.8942494   11.9597604  
  23 C      10.5816473    9.2017658   12.6707661    7.2705457    8.1614748  
  24 C      11.7744713   10.3911612   13.8729831    8.2157313    8.8550561  
  25 SI     13.5768181   12.1902380   15.6846882    9.7372249   10.0679182  
  26 C      14.2559257   12.8681464   16.4283081   11.1191451   11.6186407  
  27 C      15.7864218   14.3979343   17.9564097   12.4336658   12.7473436  
  28 C      13.7883326   12.4014903   16.0672562   11.4956507   12.2708437  
  29 C      14.3017933   12.9520144   16.2315899    9.4459174    9.3329027  
  30 C      15.7972305   14.4467422   17.7238807   10.7241109   10.3776671  
  31 C      14.1540595   12.8329423   15.9858935    9.2537865    9.1490808  
  32 C      13.9442521   12.5598883   16.1220408   10.2349737   10.5381166  
  33 C      13.1044019   11.7228432   15.3781551   10.2000644   10.8162436  
  34 C      15.4140505   14.0280473   17.6195999   11.6996605   11.8716390  
  35 C       4.9099061    3.5780951    6.9479953    4.9329468    7.2304397  
  36 C       3.7429043    2.4643300 *  5.7439393    5.1389225    7.5645057  
  37 C       2.4240194 *  1.4002955 *  4.3067703    5.6850351    8.1481797  
  38 C       2.7973608 *  2.4239120 *  3.8065905    5.2253577    7.6249867  
  39 C       2.4248700 *  2.8000061 *  2.5242710 *  6.2322962    8.5315224  
  40 C       1.4039122 *  2.4311801 *  1.4997747 *  7.4504157    9.7892557  
  41 C       0.0000000    1.3991045 *  2.5131296 *  7.7718972   10.1945132  
  42 C       1.3991045 *  0.0000000    3.8015734    6.9892803    9.4476987  
  43 C       2.5131296 *  3.8015734    0.0000000    8.6319914   10.8737179  
  44 H       7.7718972    6.9892803    8.6319914    0.0000000    2.4641853 *
  45 H      10.1945132    9.4476987   10.8737179    2.4641853 *  0.0000000  
  46 H      11.9165220   10.9737948   12.9145990    4.2861094    2.4761627 *
  47 H      11.6949667   10.5525805   13.1111583    4.9672091    4.2867618  
  48 H      10.7073286    9.4249190   12.4725386    5.5257595    5.8790382  
  49 H       6.1969489    5.1415943    7.6343663    2.4218658 *  4.7150451  
  50 H      10.3087883    8.9228458   12.6112110    8.9200599   10.2370812  
  51 H       5.4855261    4.1558875    7.8686522    7.4283961    9.6348560  
  52 H      10.9803200    9.6664565   13.3855232   11.0171953   12.5221936  
  53 H      10.9076095    9.7423570   13.3223282   12.5366437   14.3085465  
  54 H       8.9964930    7.9863095   11.3591501   12.0474287   14.1052521  
  55 H       6.6541219    5.5681986    9.0541234    9.8610342   12.0498047  
  56 H      14.0017313   12.6327931   16.1066833   10.8516719   11.3750480  
  57 H      16.2013102   14.8044222   18.4190124   12.8689261   13.1529921  
  58 H      16.2224128   14.8424014   18.3134184   12.3826729   12.5022394  
  59 H      16.2166968   14.8374448   18.4037641   13.2118177   13.6135874  
  60 H      14.2000440   12.8094222   16.5291214   11.9683113   12.7177687  
  61 H      14.2747812   12.9055774   16.5573434   12.3143352   13.1462139  
  62 H      12.6883090   11.3034517   14.9759447   10.6832552   11.6254983  
  63 H      13.8278512   12.4981454   15.7012629    8.6252759    8.4095899  
  64 H      16.3964094   15.0336717   18.3659403   11.6009166   11.3340763  
  65 H      16.0181601   14.6629921   17.9856004   10.9782318   10.6131634  
  66 H      16.2225023   14.8992948   18.0460501   10.6964913   10.1108811  
  67 H      14.7262778   13.3976572   16.5981409   10.1822751   10.1633587  
  68 H      14.6501827   13.3630504   16.3666711    9.2440082    8.8644317  
  69 H      13.1034228   11.7918889   14.9186415    8.3841614    8.4774755  
  70 H      13.8104009   12.4472182   15.9106116    9.6263121    9.7665454  
  71 H      13.3153303   11.9287840   15.6514852   10.9183050   11.6647961  
  72 H      12.0166500   10.6362080   14.2769454    9.2146826    9.9754259  
  73 H      13.4711852   12.1123935   15.7508450   10.6248640   11.1962637  
  74 H      15.6591369   14.2651148   17.9248867   12.3802805   12.6894416  
  75 H      15.6967931   14.3255171   17.9137608   12.0364601   12.1834993  
  76 H      16.1127971   14.7292999   18.2569453   11.9528756   11.9210241  
  77 H       3.8810233    3.4087829    4.6710842    4.3247199    6.6797728  
  78 H       3.4121065    3.8827648    2.7455756 *  6.2429070    8.3875910  
  79 H       1.0831472 *  2.1492644 *  2.7210539 *  8.7971273   11.2172712  
  80 H       2.1508439 *  1.0835346 *  4.6628367    7.5514542    9.9982677  
  81 H       3.4438931    4.6001146    1.1109983 *  8.5108270   10.6313633  
  82 H       2.8143418 *  4.1362675    1.1100566 *  9.0365601   11.2503360  
  83 H       2.8114959 *  4.1295299    1.1104096 *  9.4679578   11.7475961  

               46 H         47 H         48 H         49 H         50 H     

   1 C       3.8877698    3.4212537    3.3989270    2.1331514 *  6.9436663  
   2 C       3.4010550    3.8838137    4.5664946    2.6337754 *  8.3478353  
   3 C       2.1515630 *  3.3967781    4.8140746    4.0263615    9.1683052  
   4 C       1.0824018 *  2.1447525 *  4.0304637    4.8106009    8.7822663  
   5 C       2.1531921 *  1.0835883 *  2.6376785 *  4.5642667    7.4694010  
   6 C       3.4100009    2.1691173 *  2.1351857 *  3.3976383    6.4202518  
   7 C       4.5862255    2.6858815 *  1.0835029 *  3.8791972    5.0714293  
   8 C       5.8432840    4.0971135    2.1784473 *  3.4331779    4.1194113  
   9 C       6.1378138    4.8835787    3.4346893    2.1790885 *  4.9000786  
  10 C       5.2866208    4.5936643    3.8796809    1.0830800 *  6.2931872  
  11 C       7.0498745    5.0365856    2.7145155 *  4.6251493    2.7103232 *
  12 C       8.2926602    6.4003386    4.1235372    4.9048296    2.1765584 *
  13 C       8.5058061    6.9328860    4.9069853    4.1291911    3.4312625  
  14 C       7.5337032    6.2815843    4.6294504    2.7187177 *  4.6237179  
  15 C       9.5101580    7.4611627    5.0722864    6.2979227    1.0812487 *
  16 C      10.7377233    8.7782591    6.4196205    6.9542851    2.1276079 *
  17 C      10.9050849    9.1737836    6.9474669    6.4370790    3.3919106  
  18 C       9.8769465    8.3484821    6.2998853    5.0883927    3.8753421  
  19 C      11.9406556    9.8698356    7.4618229    8.3575617    2.6246710 *
  20 C      13.1623196   11.1643880    8.7759514    9.1834466    4.0163666  
  21 C      13.2998510   11.4769345    9.1671424    8.8030406    4.8007777  
  22 C      12.2421749   10.5640321    8.3517582    7.4920412    4.5564274  
  23 C       7.2429804    4.9470677    2.5350164 *  5.9000999    2.5090996 *
  24 C       7.6366563    5.2139257    2.9944653 *  7.0191130    2.9116685 *
  25 SI      8.5034727    6.0435225    4.2605075    8.7415476    4.1636863  
  26 C      10.1383633    7.6834426    5.7792059    9.8964713    4.1912933  
  27 C      11.0780716    8.6499742    6.9858761   11.3357612    5.6710215  
  28 C      11.0096089    8.5584269    6.4157945   10.0022098    3.4831475  
  29 C       7.4517974    5.0883847    3.9984624    8.9022908    5.7020647  
  30 C       8.2984866    6.0919074    5.3818773   10.3334742    7.0076566  
  31 C       7.3342827    5.0646541    4.0639661    8.7390091    5.8732655  
  32 C       8.9838120    6.6220100    4.9975282    9.2696140    4.8258282  
  33 C       9.5568182    7.2473460    5.3592132    8.9627430    4.1207467  
  34 C      10.1720348    7.8539176    6.4247705   10.7947711    6.0388985  
  35 C       8.1537904    7.2681957    5.9009498    2.5259027 *  5.9012190  
  36 C       8.7972659    8.1772538    7.0004204    2.9343309 *  7.0225326  
  37 C       9.6781342    9.3289198    8.3376629    3.8578373    8.3996878  
  38 C       9.4046562    9.3866302    8.7203133    3.9100317    9.3930316  
  39 C      10.4878474   10.6531813   10.0911341    5.2194320   10.7172191  
  40 C      11.7033179   11.7487155   11.0151827    6.2377044   11.1383913  
  41 C      11.9165220   11.6949667   10.7073286    6.1969489   10.3087883  
  42 C      10.9737948   10.5525805    9.4249190    5.1415943    8.9228458  
  43 C      12.9145990   13.1111583   12.4725386    7.6343663   12.6112110  
  44 H       4.2861094    4.9672091    5.5257595    2.4218658 *  8.9200599  
  45 H       2.4761627 *  4.2867618    5.8790382    4.7150451   10.2370812  
  46 H       0.0000000    2.4648820 *  4.7198528    5.8753069    9.6185421  
  47 H       2.4648820 *  0.0000000    2.4263807 *  5.5239591    7.4111304  
  48 H       4.7198528    2.4263807 *  0.0000000    4.9621223    4.9848132  
  49 H       5.8753069    5.5239591    4.9621223    0.0000000    7.0364075  
  50 H       9.6185421    7.4111304    4.9848132    7.0364075    0.0000000  
  51 H      10.2519058    8.9326000    7.0430679    5.0065350    4.9578356  
  52 H      12.0167930    9.8230220    7.3967414    8.9240980    2.4120183 *
  53 H      14.0858416   12.0196362    9.6083043   10.2512532    4.7041968  
  54 H      14.3142943   12.5318464   10.2365007    9.6425283    5.8649910  
  55 H      12.5457412   11.0317920    8.9279852    7.4391856    5.5165615  
  56 H       9.9509776    7.5404616    5.6558662    9.6328239    4.2005049  
  57 H      11.4452404    9.0185194    7.3880785   11.7821246    6.0434819  
  58 H      10.6988052    8.3313307    6.9163949   11.4738098    6.3468178  
  59 H      12.0020188    9.5789991    7.8489218   12.0126058    6.0345262  
  60 H      11.4220083    8.9708373    6.8685615   10.4860967    3.9668347  
  61 H      11.9154993    9.4750463    7.3292195   10.7489305    4.0569199  
  62 H      10.5487719    8.1384487    5.8590595    9.0673297    2.3828874 *
  63 H       6.4967559    4.1464721    3.2858499    8.2432275    5.8808897  
  64 H       9.2844925    7.0580224    6.1936738   11.0917262    7.1872663  
  65 H       8.5280165    6.3593735    5.6831339   10.5990268    7.2484018  
  66 H       7.9005069    5.8786679    5.6055868   10.5439037    7.8629075  
  67 H       8.3920775    6.1466737    5.0212654    9.5372383    6.0065790  
  68 H       6.8969489    4.8246152    4.3781543    9.0105798    6.8877915  
  69 H       6.8775748    4.5871272    3.3136119    7.7531187    5.2010440  
[...]
   20 C             6.240029   -0.240029         6.104348   -0.104348
   21 C             6.239839   -0.239839         6.104426   -0.104426
   22 C             6.188135   -0.188135         6.081057   -0.081057
   23 C             6.413057   -0.413057         6.053855   -0.053855
   24 C             6.400479   -0.400479         6.320563   -0.320563
   25 SI           11.718019    2.281981        13.018359    0.981641
   26 C             6.785542   -0.785542         6.358078   -0.358078
   27 C             6.574841   -0.574841         6.241305   -0.241305
   28 C             6.573145   -0.573145         6.234148   -0.234148
   29 C             6.770643   -0.770643         6.358639   -0.358639
   30 C             6.571584   -0.571584         6.240471   -0.240471
   31 C             6.573280   -0.573280         6.241868   -0.241868
   32 C             6.768640   -0.768640         6.359300   -0.359300
   33 C             6.567647   -0.567647         6.241823   -0.241823
   34 C             6.569662   -0.569662         6.240584   -0.240584
   35 C             6.223900   -0.223900         6.066824   -0.066824
   36 C             6.109084   -0.109084         6.052639   -0.052639
   37 C             5.966060    0.033940         6.043520   -0.043520
   38 C             6.203185   -0.203185         6.066872   -0.066872
   39 C             6.222437   -0.222437         6.109399   -0.109399
   40 C             6.061935   -0.061935         6.018307   -0.018307
   41 C             6.221128   -0.221128         6.108792   -0.108792
   42 C             6.204906   -0.204906         6.066366   -0.066366
   43 C             6.582514   -0.582514         6.244308   -0.244308
   44 H             0.757284    0.242716         0.895546    0.104454
   45 H             0.757415    0.242585         0.895627    0.104373
   46 H             0.757168    0.242832         0.895506    0.104494
   47 H             0.756104    0.243896         0.894934    0.105066
   48 H             0.732036    0.267964         0.883601    0.116399
   49 H             0.734264    0.265736         0.884908    0.115092
   50 H             0.714771    0.285229         0.884826    0.115174
   51 H             0.735135    0.264865         0.884653    0.115347
   52 H             0.755383    0.244617         0.894876    0.105124
   53 H             0.757198    0.242802         0.895525    0.104475
   54 H             0.757400    0.242600         0.895620    0.104380
   55 H             0.756933    0.243067         0.895387    0.104613
   56 H             0.770824    0.229176         0.891304    0.108696
   57 H             0.796758    0.203242         0.910468    0.089532
   58 H             0.801618    0.198382         0.914670    0.085330
   59 H             0.798891    0.201109         0.914162    0.085838
   60 H             0.802339    0.197661         0.912957    0.087043
   61 H             0.799265    0.200735         0.914617    0.085383
   62 H             0.795278    0.204722         0.912087    0.087913
   63 H             0.779321    0.220679         0.893598    0.106402
   64 H             0.806675    0.193325         0.916039    0.083961
   65 H             0.799446    0.200554         0.912698    0.087302
   66 H             0.801830    0.198170         0.916189    0.083811
   67 H             0.815985    0.184015         0.917363    0.082637
   68 H             0.803162    0.196838         0.916392    0.083608
   69 H             0.793039    0.206961         0.904513    0.095487
   70 H             0.781849    0.218151         0.896481    0.103519
   71 H             0.812557    0.187443         0.919135    0.080865
   72 H             0.782111    0.217889         0.900571    0.099429
   73 H             0.809242    0.190758         0.920022    0.079978
   74 H             0.811243    0.188757         0.918840    0.081160
   75 H             0.802106    0.197894         0.916331    0.083669
   76 H             0.806006    0.193994         0.917254    0.082746
   77 H             0.748200    0.251800         0.889649    0.110351
   78 H             0.758751    0.241249         0.896116    0.103884
   79 H             0.758418    0.241582         0.895981    0.104019
   80 H             0.748229    0.251771         0.889165    0.110835
   81 H             0.789790    0.210210         0.904016    0.095984
   82 H             0.778912    0.221088         0.895890    0.104110
   83 H             0.778903    0.221097         0.895867    0.104133

          MULLIKEN SPHERICAL HARMONIC POPULATIONS
       ATOM           S       P       D      F      G      H      I    TOTAL
    1 C             3.19    2.90    0.00   0.00   0.00   0.00   0.00    6.09
    2 C             3.26    2.93    0.00   0.00   0.00   0.00   0.00    6.19
    3 C             3.27    2.97    0.00   0.00   0.00   0.00   0.00    6.24
    4 C             3.27    2.97    0.00   0.00   0.00   0.00   0.00    6.24
    5 C             3.26    2.93    0.00   0.00   0.00   0.00   0.00    6.19
    6 C             3.19    2.90    0.00   0.00   0.00   0.00   0.00    6.09
    7 C             3.23    2.90    0.00   0.00   0.00   0.00   0.00    6.14
    8 C             3.18    2.91    0.00   0.00   0.00   0.00   0.00    6.09
    9 C             3.18    2.92    0.00   0.00   0.00   0.00   0.00    6.09
   10 C             3.23    2.90    0.00   0.00   0.00   0.00   0.00    6.13
   11 C             3.15    2.80    0.00   0.00   0.00   0.00   0.00    5.96
   12 C             3.18    2.92    0.00   0.00   0.00   0.00   0.00    6.09
   13 C             3.18    2.92    0.00   0.00   0.00   0.00   0.00    6.09
   14 C             3.11    2.73    0.00   0.00   0.00   0.00   0.00    5.84
   15 C             3.23    2.92    0.00   0.00   0.00   0.00   0.00    6.15
   16 C             3.20    2.90    0.00   0.00   0.00   0.00   0.00    6.10
   17 C             3.19    2.90    0.00   0.00   0.00   0.00   0.00    6.09
   18 C             3.24    2.90    0.00   0.00   0.00   0.00   0.00    6.13
   19 C             3.26    2.93    0.00   0.00   0.00   0.00   0.00    6.19
   20 C             3.27    2.97    0.00   0.00   0.00   0.00   0.00    6.24
   21 C             3.27    2.97    0.00   0.00   0.00   0.00   0.00    6.24
   22 C             3.26    2.93    0.00   0.00   0.00   0.00   0.00    6.19
   23 C             3.07    3.34    0.00   0.00   0.00   0.00   0.00    6.41
   24 C             2.97    3.43    0.00   0.00   0.00   0.00   0.00    6.40
   25 SI            4.68    7.04    0.00   0.00   0.00   0.00   0.00   11.72
   26 C             3.52    3.26    0.00   0.00   0.00   0.00   0.00    6.79
   27 C             3.47    3.11    0.00   0.00   0.00   0.00   0.00    6.57
   28 C             3.47    3.10    0.00   0.00   0.00   0.00   0.00    6.57
   29 C             3.52    3.25    0.00   0.00   0.00   0.00   0.00    6.77
   30 C             3.47    3.11    0.00   0.00   0.00   0.00   0.00    6.57
   31 C             3.46    3.11    0.00   0.00   0.00   0.00   0.00    6.57
   32 C             3.52    3.25    0.00   0.00   0.00   0.00   0.00    6.77
   33 C             3.46    3.11    0.00   0.00   0.00   0.00   0.00    6.57
   34 C             3.46    3.11    0.00   0.00   0.00   0.00   0.00    6.57
   35 C             2.84    3.38    0.00   0.00   0.00   0.00   0.00    6.22
   36 C             2.80    3.31    0.00   0.00   0.00   0.00   0.00    6.11
   37 C             3.18    2.79    0.00   0.00   0.00   0.00   0.00    5.97
   38 C             3.28    2.92    0.00   0.00   0.00   0.00   0.00    6.20
   39 C             3.27    2.96    0.00   0.00   0.00   0.00   0.00    6.22
   40 C             3.23    2.83    0.00   0.00   0.00   0.00   0.00    6.06
   41 C             3.27    2.95    0.00   0.00   0.00   0.00   0.00    6.22
   42 C             3.28    2.92    0.00   0.00   0.00   0.00   0.00    6.20
   43 C             3.49    3.10    0.00   0.00   0.00   0.00   0.00    6.58
   44 H             0.76    0.00    0.00   0.00   0.00   0.00   0.00    0.76
   45 H             0.76    0.00    0.00   0.00   0.00   0.00   0.00    0.76
   46 H             0.76    0.00    0.00   0.00   0.00   0.00   0.00    0.76
   47 H             0.76    0.00    0.00   0.00   0.00   0.00   0.00    0.76
   48 H             0.73    0.00    0.00   0.00   0.00   0.00   0.00    0.73
   49 H             0.73    0.00    0.00   0.00   0.00   0.00   0.00    0.73
   50 H             0.71    0.00    0.00   0.00   0.00   0.00   0.00    0.71
   51 H             0.74    0.00    0.00   0.00   0.00   0.00   0.00    0.74
   52 H             0.76    0.00    0.00   0.00   0.00   0.00   0.00    0.76
   53 H             0.76    0.00    0.00   0.00   0.00   0.00   0.00    0.76
   54 H             0.76    0.00    0.00   0.00   0.00   0.00   0.00    0.76
   55 H             0.76    0.00    0.00   0.00   0.00   0.00   0.00    0.76
   56 H             0.77    0.00    0.00   0.00   0.00   0.00   0.00    0.77
   57 H             0.80    0.00    0.00   0.00   0.00   0.00   0.00    0.80
   58 H             0.80    0.00    0.00   0.00   0.00   0.00   0.00    0.80
   59 H             0.80    0.00    0.00   0.00   0.00   0.00   0.00    0.80
   60 H             0.80    0.00    0.00   0.00   0.00   0.00   0.00    0.80
   61 H             0.80    0.00    0.00   0.00   0.00   0.00   0.00    0.80
   62 H             0.80    0.00    0.00   0.00   0.00   0.00   0.00    0.80
   63 H             0.78    0.00    0.00   0.00   0.00   0.00   0.00    0.78
   64 H             0.81    0.00    0.00   0.00   0.00   0.00   0.00    0.81
   65 H             0.80    0.00    0.00   0.00   0.00   0.00   0.00    0.80
   66 H             0.80    0.00    0.00   0.00   0.00   0.00   0.00    0.80
   67 H             0.82    0.00    0.00   0.00   0.00   0.00   0.00    0.82
   68 H             0.80    0.00    0.00   0.00   0.00   0.00   0.00    0.80
   69 H             0.79    0.00    0.00   0.00   0.00   0.00   0.00    0.79
   70 H             0.78    0.00    0.00   0.00   0.00   0.00   0.00    0.78
   71 H             0.81    0.00    0.00   0.00   0.00   0.00   0.00    0.81
   72 H             0.78    0.00    0.00   0.00   0.00   0.00   0.00    0.78
   73 H             0.81    0.00    0.00   0.00   0.00   0.00   0.00    0.81
   74 H             0.81    0.00    0.00   0.00   0.00   0.00   0.00    0.81
   75 H             0.80    0.00    0.00   0.00   0.00   0.00   0.00    0.80
   76 H             0.81    0.00    0.00   0.00   0.00   0.00   0.00    0.81
   77 H             0.75    0.00    0.00   0.00   0.00   0.00   0.00    0.75
   78 H             0.76    0.00    0.00   0.00   0.00   0.00   0.00    0.76
   79 H             0.76    0.00    0.00   0.00   0.00   0.00   0.00    0.76
   80 H             0.75    0.00    0.00   0.00   0.00   0.00   0.00    0.75
   81 H             0.79    0.00    0.00   0.00   0.00   0.00   0.00    0.79
   82 H             0.78    0.00    0.00   0.00   0.00   0.00   0.00    0.78
   83 H             0.78    0.00    0.00   0.00   0.00   0.00   0.00    0.78

          -------------------------------
          BOND ORDER AND VALENCE ANALYSIS     BOND ORDER THRESHOLD=0.050
          -------------------------------

                   BOND                       BOND                       BOND
  ATOM PAIR DIST  ORDER      ATOM PAIR DIST  ORDER      ATOM PAIR DIST  ORDER
    1   2  1.405  1.184        1   6  1.409  1.188        1  10  1.399  1.427
    2   3  1.397  1.611        2   5  2.800  0.112        2  44  1.084  0.938
    3   4  1.397  1.202        3  10  3.711  0.052        3  45  1.082  0.936
    4   5  1.398  1.611        4   7  3.712  0.052        4  46  1.082  0.936
    5   6  1.405  1.184        5  47  1.084  0.938        6   7  1.399  1.427
    7   8  1.415  1.311        7  10  2.796  0.135        7  48  1.084  0.918
    8   9  1.420  1.207        8  11  1.415  1.318        9  10  1.416  1.311
    9  14  1.418  1.312       10  49  1.083  0.920       11  12  1.415  1.315
   11  14  2.828  0.126       11  23  1.449  1.022       11  24  2.651  0.074
   12  13  1.419  1.208       12  15  1.414  1.311       13  14  1.417  1.315
   13  18  1.416  1.310       14  35  1.451  0.941       14  36  2.656  0.079
   14  37  4.092  0.062       15  16  1.396  1.425       15  18  2.794  0.135
   15  20  3.705  0.052       15  50  1.081  0.906       16  17  1.409  1.189
   16  19  1.405  1.183       17  18  1.401  1.429       17  22  1.405  1.184
   18  21  3.715  0.053       18  51  1.083  0.920       19  20  1.397  1.612
   19  22  2.801  0.112       19  52  1.084  0.937       20  21  1.397  1.201
   20  53  1.082  0.936       21  22  1.398  1.612       21  54  1.082  0.936
   22  55  1.083  0.938       23  24  1.203  3.300       24  25  1.812  0.338
   25  26  1.912  0.687       25  29  1.906  0.674       25  32  1.922  0.681
   26  27  1.531  0.917       26  28  1.529  0.927       26  56  1.111  0.912
   27  57  1.105  0.921       27  58  1.105  0.926       27  59  1.111  0.931
   28  60  1.106  0.924       28  61  1.111  0.931       28  62  1.109  0.921
   29  30  1.530  0.922       29  31  1.532  0.919       29  63  1.112  0.920
   30  64  1.105  0.924       30  65  1.105  0.927       30  66  1.111  0.931
   31  67  1.111  0.933       31  68  1.111  0.933       31  69  1.111  0.927
   32  33  1.540  0.926       32  34  1.531  0.918       32  70  1.111  0.917
   33  71  1.105  0.926       33  72  1.109  0.923       33  73  1.111  0.933
   34  74  1.107  0.926       34  75  1.111  0.932       34  76  1.102  0.927
   35  36  1.205  3.235       36  37  1.437  0.909       37  38  1.400  1.365
   37  39  2.424 -0.056       37  40  2.807  0.095       37  41  2.424 -0.056
   37  42  1.400  1.361       38  39  1.397  1.420       38  41  2.797  0.099
   38  77  1.084  0.935       39  40  1.404  1.394       39  42  2.800  0.098
   39  78  1.083  0.938       40  41  1.404  1.372       40  43  1.500  0.936
   41  42  1.399  1.434       41  79  1.083  0.939       42  80  1.084  0.935
   43  81  1.111  0.933       43  82  1.110  0.916       43  83  1.110  0.916

                       TOTAL       BONDED        FREE
      ATOM            VALENCE     VALENCE     VALENCE
    1 C                 3.724       3.724      -0.000
    2 C                 3.758       3.758       0.000
    3 C                 3.749       3.749       0.000
    4 C                 3.749       3.749       0.000
    5 C                 3.758       3.758      -0.000
    6 C                 3.724       3.724       0.000
    7 C                 3.762       3.762      -0.000
    8 C                 3.786       3.786       0.000
    9 C                 3.784       3.784       0.000
   10 C                 3.762       3.762      -0.000
   11 C                 3.822       3.822      -0.000
   12 C                 3.783       3.783       0.000
   13 C                 3.787       3.787       0.000
   14 C                 3.796       3.796       0.000
   15 C                 3.751       3.751      -0.000
   16 C                 3.719       3.719       0.000
   17 C                 3.727       3.727       0.000
   18 C                 3.765       3.765      -0.000
   19 C                 3.758       3.758       0.000
   20 C                 3.749       3.749       0.000
   21 C                 3.750       3.750       0.000
   22 C                 3.758       3.758       0.000
   23 C                 4.300       4.300       0.000
   24 C                 3.840       3.840      -0.000
   25 SI                2.182       2.182      -0.000
   26 C                 3.425       3.425      -0.000
   27 C                 3.648       3.648      -0.000
   28 C                 3.649       3.649      -0.000
   29 C                 3.411       3.411      -0.000
   30 C                 3.655       3.655      -0.000
   31 C                 3.655       3.655      -0.000
   32 C                 3.420       3.420      -0.000
   33 C                 3.653       3.653      -0.000
   34 C                 3.657       3.657      -0.000
   35 C                 4.279       4.279       0.000
   36 C                 4.268       4.268      -0.000
   37 C                 3.706       3.706      -0.000
   38 C                 3.739       3.739       0.000
   39 C                 3.754       3.754      -0.000
   40 C                 3.672       3.672       0.000
   41 C                 3.734       3.734      -0.000
   42 C                 3.748       3.748      -0.000
   43 C                 3.652       3.652       0.000
   44 H                 0.919       0.919       0.000
   45 H                 0.916       0.916       0.000
   46 H                 0.916       0.916       0.000
   47 H                 0.919       0.919       0.000
   48 H                 0.915       0.915      -0.000
   49 H                 0.915       0.915       0.000
   50 H                 0.906       0.906       0.000
   51 H                 0.916       0.916       0.000
   52 H                 0.919       0.919      -0.000
   53 H                 0.916       0.916       0.000
   54 H                 0.916       0.916       0.000
   55 H                 0.919       0.919       0.000
   56 H                 0.905       0.905       0.000
   57 H                 0.920       0.920       0.000
   58 H                 0.922       0.922       0.000
   59 H                 0.920       0.920      -0.000
   60 H                 0.921       0.921      -0.000
   61 H                 0.920       0.920      -0.000
   62 H                 0.923       0.923       0.000
   63 H                 0.913       0.913       0.000
   64 H                 0.924       0.924      -0.000
   65 H                 0.919       0.919      -0.000
   66 H                 0.920       0.920      -0.000
   67 H                 0.926       0.926      -0.000
   68 H                 0.923       0.923       0.000
   69 H                 0.924       0.924       0.000
   70 H                 0.911       0.911       0.000
   71 H                 0.924       0.924      -0.000
   72 H                 0.919       0.919       0.000
   73 H                 0.923       0.923      -0.000
   74 H                 0.923       0.923       0.000
   75 H                 0.920       0.920       0.000
   76 H                 0.924       0.924      -0.000
   77 H                 0.916       0.916       0.000
   78 H                 0.919       0.919       0.000
   79 H                 0.919       0.919      -0.000
   80 H                 0.916       0.916       0.000
   81 H                 0.920       0.920      -0.000
   82 H                 0.910       0.910      -0.000
   83 H                 0.909       0.909       0.000

          ---------------------
          ELECTROSTATIC MOMENTS
          ---------------------

 POINT   1           X           Y           Z (BOHR)    CHARGE
                 4.687861   -1.261542    0.379960       -0.00 (A.U.)
         DX          DY          DZ         /D/  (DEBYE)
    -0.005540    1.230071    0.240611    1.253395
 ...... END OF PROPERTY EVALUATION ......
 STEP CPU TIME =     0.76 TOTAL CPU TIME =         96.7 (      1.6 MIN)
 TOTAL WALL CLOCK TIME=        101.8 SECONDS, CPU UTILIZATION IS    94.94%
              1939773  WORDS OF DYNAMIC MEMORY USED
 EXECUTION OF GAMESS TERMINATED NORMALLY Thu Apr 16 15:50:09 2020
 DDI: 263640 bytes (0.3 MB / 0 MWords) used by master data server.

 ----------------------------------------
 CPU timing information for all processes
 ========================================
 0: 74.860 + 21.849 = 96.710
 ----------------------------------------
 ddikick.x: exited gracefully.
----- accounting info -----
Files used on the master node linked.cem.msu.edu were:
-rw-r--r-- 1 gururang piecuch       4503 Apr 16 15:48 /scratch/gururang/monomer_scf.F05
-rw-r--r-- 1 gururang piecuch 6469631280 Apr 16 15:48 /scratch/gururang/monomer_scf.F08
-rw-r--r-- 1 gururang piecuch   54067200 Apr 16 15:50 /scratch/gururang/monomer_scf.F10
Thu Apr 16 15:50:13 EDT 2020
0.089u 1.203s 1:46.16 1.2%	0+0k 0+16io 0pf+0w
