----- GAMESS execution script 'rungms' -----
This job is running on host stochastic.cem.msu.edu
under operating system Linux at Thu Jun 11 13:51:40 EDT 2020
Available scratch disk space (Kbyte units) at beginning of the job is
Filesystem      1K-blocks       Used Available Use% Mounted on
/dev/sdb1      3904037360 3149749752 754287608  81% /scratch
GAMESS temporary binary files will be written to /scratch/gururang
GAMESS supplementary output files will be written to /home2/gururang/gamess/tests
Copying input file rectangle-d2h.inp to your run's scratch directory...

 Distributed Data Interface kickoff program.
 Initiating 1 compute processes on 1 nodes to run the following command:
 /home2/gururang/gamess/gamess.00.x rectangle-d2h 

          ******************************************************
          *      GAMESS VERSION = 30 JUN 2019 R1 Patch 1       *
          *             FROM IOWA STATE UNIVERSITY             *
          * M.W.SCHMIDT, K.K.BALDRIDGE, J.A.BOATZ, S.T.ELBERT, *
          *   M.S.GORDON, J.H.JENSEN, S.KOSEKI, N.MATSUNAGA,   *
          *          K.A.NGUYEN, S.J.SU, T.L.WINDUS,           *
          *       TOGETHER WITH M.DUPUIS, J.A.MONTGOMERY       *
          *         J.COMPUT.CHEM.  14, 1347-1363(1993)        *
          **************** 64 BIT LINUX VERSION ****************

  SINCE 1993, STUDENTS AND POSTDOCS WORKING AT IOWA STATE UNIVERSITY
  AND ALSO IN THEIR VARIOUS JOBS AFTER LEAVING ISU HAVE MADE IMPORTANT
  CONTRIBUTIONS TO THE CODE:
     IVANA ADAMOVIC, CHRISTINE AIKENS, YURI ALEXEEV, POOJA ARORA,
     ANDREY ASADCHEV, ROB BELL, PRADIPTA BANDYOPADHYAY, JONATHAN BENTZ,
     COLLEEN BERTONI, BRETT BODE, KURT BRORSEN, CALEB CARLIN, GALINA CHABAN,
     WEI CHEN, CHEOL HO CHOI, PAUL DAY, ALBERT DEFUSCO, NUWAN DESILVA,
     TIM DUDLEY, DMITRI FEDOROV, ALEX FINDLATER, GRAHAM FLETCHER, 
     MARK FREITAG, KURT GLAESEMANN, ANASTASIA GUNINA,
     DAN KEMP, GRANT MERRILL, NORIYUKI MINEZAWA, JONATHAN MULLIN,
     TAKESHI NAGATA, SEAN NEDD, HEATHER NETZLOFF, BOSILJKA NJEGIC, RYAN OLSON,
     MIKE PAK, BUU PHAM,
     SPENCER PRUITT, LUKE ROSKOP, JIM SHOEMAKER, LYUDMILA SLIPCHENKO,
     TONY SMITH, SAROM SOK LEANG, JIE SONG, TETSUYA TAKETSUGU, SIMON WEBB,
     PENG XU, SOOHAENG YOO, FEDERICO ZAHARIEV

  ADDITIONAL CODE HAS BEEN PROVIDED BY COLLABORATORS IN OTHER GROUPS:
     IOWA STATE UNIVERSITY:
          JOE IVANIC, AARON WEST, LAIMUTIS BYTAUTAS, KLAUS RUEDENBERG
     UNIVERSITY OF TOKYO: KIMIHIKO HIRAO, TAKAHITO NAKAJIMA,
          TAKAO TSUNEDA, MUNEAKI KAMIYA, SUSUMU YANAGISAWA,
          KIYOSHI YAGI, MAHITO CHIBA, SEIKEN TOKURA, NAOAKI KAWAKAMI
     UNIVERSITY OF AARHUS: FRANK JENSEN
     UNIVERSITY OF IOWA: VISVALDAS KAIRYS, HUI LI
     NATIONAL INST. OF STANDARDS AND TECHNOLOGY: WALT STEVENS, DAVID GARMER
     UNIVERSITY OF PISA: BENEDETTA MENNUCCI, JACOPO TOMASI
     UNIVERSITY OF MEMPHIS: HENRY KURTZ, PRAKASHAN KORAMBATH
     UNIVERSITY OF ALBERTA: TOBY ZENG, MARIUSZ KLOBUKOWSKI
     UNIVERSITY OF NEW ENGLAND: MARK SPACKMAN
     MIE UNIVERSITY: HIROAKI UMEDA
     NAT. INST. OF ADVANCED INDUSTRIAL SCIENCE AND TECHNOLOGY: KAZUO KITAURA
     MICHIGAN STATE UNIVERSITY:
          KAROL KOWALSKI, MARTA WLOCH, JEFFREY GOUR, JESSE LUTZ,
          WEI LI, JUN SHEN, J. EMILIANO DEUSTUA, PIOTR PIECUCH
     UNIVERSITY OF MINNESOTA:
          YINAN SHU
     UNIVERSITY OF SILESIA: MONIKA MUSIAL, STANISLAW KUCHARSKI
     FACULTES UNIVERSITAIRES NOTRE-DAME DE LA PAIX:
          OLIVIER QUINET, BENOIT CHAMPAGNE
     UNIVERSITY OF CALIFORNIA - SANTA BARBARA: BERNARD KIRTMAN
     INSTITUTE FOR MOLECULAR SCIENCE:
          KAZUYA ISHIMURA, MICHIO KATOUDA, AND SHIGERU NAGASE
     UNIVERSITY OF NOTRE DAME: ANNA POMOGAEVA, DAN CHIPMAN
     KYUSHU UNIVERSITY:
          HARUYUKI NAKANO,
          FENG LONG GU, JACEK KORCHOWIEC, MARCIN MAKOWSKI, AND YURIKO AOKI,
          HIROTOSHI MORI AND EISAKU MIYOSHI
     PENNSYLVANIA STATE UNIVERSITY:
          TZVETELIN IORDANOV, CHET SWALINA, JONATHAN SKONE,
          SHARON HAMMES-SCHIFFER
     WASEDA UNIVERSITY:
          MASATO KOBAYASHI, TOMOKO AKAMA, TSUGUKI TOUMA,
          TAKESHI YOSHIKAWA, YASUHIRO IKABATA, JUNJI SEINO,
          YUYA NAKAJIMA, HIROMI NAKAI
     NANJING UNIVERSITY: SHUHUA LI
     UNIVERSITY OF NEBRASKA:
          PEIFENG SU, DEJUN SI, NANDUN THELLAMUREGE, YALI WANG, HUI LI
     UNIVERSITY OF ZURICH: ROBERTO PEVERATI, KIM BALDRIDGE
     N. COPERNICUS UNIVERSITY AND JACKSON STATE UNIVERSITY:
          MARIA BARYSZ
     UNIVERSITY OF COPENHAGEN: Jimmy Kromann, CASPER STEINMANN
     TOKYO INSTITUTE OF TECHNOLOGY: HIROYA NAKATA
     NAGOYA UNIVERSITY: YOSHIO NISHIMOTO, STEPHAN IRLE
     MOSCOW STATE UNIVERSITY: VLADIMIR MIRONOV
     A.N.NESMEYANOV INSTITUTE OF ORGANOELEMENT COMPOUNDS OF RUSSIAN ACADEMY OF SCIENCES:
          IGOR S. GERASIMOV

 EXECUTION OF GAMESS BEGUN Thu Jun 11 13:51:40 2020

            ECHO OF THE FIRST FEW INPUT CARDS -
 INPUT CARD> $contrl runtyp=energy scftyp=rhf cctyp=cr-ccl maxit=100 $end                   
 INPUT CARD> $contrl icut=20 itol=30 ispher=1 mult=1 $end                                   
 INPUT CARD> $system mwords=100 $end                                                        
 INPUT CARD> $scf nconv=10 diis=.true. $end                                                 
 INPUT CARD> $BASIS GBASIS=CCD $END                                                         
 INPUT CARD> $ccinp nfzv=0 ncore=4 iconv=10 maxcc=100 $end                                  
 INPUT CARD> $guess guess=huckel $end                                                       
 INPUT CARD> $data                                                                          
 INPUT CARD>From gaussian file to gamess file                                               
 INPUT CARD>DNH 2                                                                           
 INPUT CARD>                                                                                
 INPUT CARD> C 6.0                  0.68350000    0.78650000   -0.00000000                  
 INPUT CARD> H 1.0                 1.45771544    1.55801763   -0.00000000                   
 INPUT CARD> $end                                                                           
  100000000 WORDS OF MEMORY AVAILABLE

     BASIS OPTIONS
     -------------
     GBASIS=CCD          IGAUSS=       0      POLAR=NONE    
     NDFUNC=       0     NFFUNC=       0     DIFFSP=       F
     NPFUNC=       0      DIFFS=       F     BASNAM=        


     RUN TITLE
     ---------
 From gaussian file to gamess file                                               

 THE POINT GROUP OF THE MOLECULE IS DNH     
 THE ORDER OF THE PRINCIPAL AXIS IS     2

 ATOM      ATOMIC                      COORDINATES (BOHR)
           CHARGE         X                   Y                   Z
 C           6.0    -1.2916277126       -1.4862694893        0.0000000000
 C           6.0     1.2916277126       -1.4862694893        0.0000000000
 C           6.0    -1.2916277126        1.4862694893        0.0000000000
 C           6.0     1.2916277126        1.4862694893       -0.0000000000
 H           1.0    -2.7546827497       -2.9442264047        0.0000000000
 H           1.0     2.7546827497       -2.9442264047        0.0000000000
 H           1.0    -2.7546827497        2.9442264047        0.0000000000
 H           1.0     2.7546827497        2.9442264047       -0.0000000000

          INTERNUCLEAR DISTANCES (ANGS.)
          ------------------------------

                1 C          2 C          3 C          4 C          5 H     

   1 C       0.0000000    1.3670000 *  1.5730000 *  2.0839909 *  1.0930000 *
   2 C       1.3670000 *  0.0000000    2.0839909 *  1.5730000 *  2.2759708 *
   3 C       1.5730000 *  2.0839909 *  0.0000000    1.3670000 *  2.4690428 *
   4 C       2.0839909 *  1.5730000 *  1.3670000 *  0.0000000    3.1751483  
   5 H       1.0930000 *  2.2759708 *  2.4690428 *  3.1751483    0.0000000  
   6 H       2.2759708 *  1.0930000 *  3.1751483    2.4690428 *  2.9154309 *
   7 H       2.4690428 *  3.1751483    1.0930000 *  2.2759708 *  3.1160353  
   8 H       3.1751483    2.4690428 *  2.2759708 *  1.0930000 *  4.2672489  

                6 H          7 H          8 H     

   1 C       2.2759708 *  2.4690428 *  3.1751483  
   2 C       1.0930000 *  3.1751483    2.4690428 *
   3 C       3.1751483    1.0930000 *  2.2759708 *
   4 C       2.4690428 *  2.2759708 *  1.0930000 *
   5 H       2.9154309 *  3.1160353    4.2672489  
   6 H       0.0000000    4.2672489    3.1160353  
   7 H       4.2672489    0.0000000    2.9154309 *
   8 H       3.1160353    2.9154309 *  0.0000000  

  * ... LESS THAN  3.000


     ATOMIC BASIS SET
     ----------------
 THE CONTRACTED PRIMITIVE FUNCTIONS HAVE BEEN UNNORMALIZED
 THE CONTRACTED BASIS FUNCTIONS ARE NOW NORMALIZED TO UNITY

  SHELL TYPE  PRIMITIVE        EXPONENT          CONTRACTION COEFFICIENT(S)

 C         

     19   S       1          6665.0000000    0.000691583963
     19   S       2          1000.0000000    0.005325796153
     19   S       3           228.0000000    0.027060721042
     19   S       4            64.7100000    0.101656846141
     19   S       5            21.0600000    0.274574823617
     19   S       6             7.4950000    0.448294318924
     19   S       7             2.7970000    0.284902610715
     19   S       8             0.5215000    0.015194859206

     20   S       9          6665.0000000   -0.000293269653
     20   S      10          1000.0000000   -0.002318035474
     20   S      11           228.0000000   -0.011499786039
     20   S      12            64.7100000   -0.046826727010
     20   S      13            21.0600000   -0.128466168750
     20   S      14             7.4950000   -0.301266272463
     20   S      15             2.7970000   -0.255630702330
     20   S      16             0.5215000    1.093793361012

     21   S      17             0.1596000    1.000000000000

     22   P      18             9.4390000    0.056979251590
     22   P      19             2.0020000    0.313207211501
     22   P      20             0.5456000    0.760376741738

     23   P      21             0.1517000    1.000000000000

     24   D      22             0.5500000    1.000000000000

 H         

     34   S      23            13.0100000    0.033498726390
     34   S      24             1.9620000    0.234800801174
     34   S      25             0.4446000    0.813682957883

     35   S      26             0.1220000    1.000000000000

     36   P      27             0.7270000    1.000000000000

 TOTAL NUMBER OF BASIS SET SHELLS             =   36
 NUMBER OF CARTESIAN GAUSSIAN BASIS FUNCTIONS =   80
 NOTE: THIS RUN WILL RESTRICT THE MO VARIATION SPACE TO SPHERICAL HARMONICS.
 THE NUMBER OF ORBITALS KEPT IN THE VARIATIONAL SPACE WILL BE PRINTED LATER.
 NUMBER OF ELECTRONS                          =   28
 CHARGE OF MOLECULE                           =    0
 SPIN MULTIPLICITY                            =    1
 NUMBER OF OCCUPIED ORBITALS (ALPHA)          =   14
 NUMBER OF OCCUPIED ORBITALS (BETA )          =   14
 TOTAL NUMBER OF ATOMS                        =    8
 THE NUCLEAR REPULSION ENERGY IS       97.6702716751

     $CONTRL OPTIONS
     ---------------
 SCFTYP=RHF          RUNTYP=ENERGY       EXETYP=RUN     
 MPLEVL=       0     CITYP =NONE         CCTYP =CR-CCL       VBTYP =NONE    
 DFTTYP=NONE         TDDFT =NONE    
 MULT  =       1     ICHARG=       0     NZVAR =       0     COORD =UNIQUE  
 PP    =NONE         RELWFN=NONE         LOCAL =NONE         NUMGRD=       F
 ISPHER=       1     NOSYM =       0     MAXIT =     100     UNITS =ANGS    
 PLTORB=       F     MOLPLT=       F     AIMPAC=       F     FRIEND=        
 NPRINT=       7     IREST =       0     GEOM  =INPUT   
 NORMF =       0     NORMP =       0     ITOL  =      30     ICUT  =      20
 INTTYP=BEST         GRDTYP=BEST         QMTTOL= 1.0E-06

     $SYSTEM OPTIONS
     ---------------
  REPLICATED MEMORY=   100000000 WORDS (ON EVERY NODE).
 DISTRIBUTED MEMDDI=           0 MILLION WORDS IN AGGREGATE,
 MEMDDI DISTRIBUTED OVER   1 PROCESSORS IS           0 WORDS/PROCESSOR.
 TOTAL MEMORY REQUESTED ON EACH PROCESSOR=   100000000 WORDS.
 TIMLIM=      525600.00 MINUTES, OR     365.0 DAYS.
 PARALL= F  BALTYP=  DLB     KDIAG=    0  COREFL= F
 MXSEQ2=     300 MXSEQ3=     150  mem10=         0

          ----------------
          PROPERTIES INPUT
          ----------------

     MOMENTS            FIELD           POTENTIAL          DENSITY
 IEMOM =       1   IEFLD =       0   IEPOT =       0   IEDEN =       0
 WHERE =COMASS     WHERE =NUCLEI     WHERE =NUCLEI     WHERE =NUCLEI  
 OUTPUT=BOTH       OUTPUT=BOTH       OUTPUT=BOTH       OUTPUT=BOTH    
 IEMINT=       0   IEFINT=       0                     IEDINT=       0
                                                       MORB  =       0
          EXTRAPOLATION IN EFFECT
          DIIS IN EFFECT
 ORBITAL PRINTING OPTION: NPREO=     1    80     2     1

     -------------------------------
     INTEGRAL TRANSFORMATION OPTIONS
     -------------------------------
     NWORD  =            0
     CUTOFF = 1.0E-09     MPTRAN =       0
     DIRTRF =       F     AOINTS =DUP     

          ----------------------
          INTEGRAL INPUT OPTIONS
          ----------------------
 NOPK  =       1 NORDER=       0 SCHWRZ=       T

     -------------------------------------------
     EQUATION OF MOTION INPUT FOR EXCITED STATES
     -------------------------------------------
     OPTIONS FOR STATE SELECTION:
     GROUP =D2H       NSTATE= 0, 0, 0, 0, 0, 0, 0, 0    IROOT = 1, 0
     OPTIONS FOR THE EOM-CCSD:
     MEOM  =       0  MAXEOM=      50  MICEOM=      80  CVGEOM= 1.0E-10
     OPTIONS FOR PROPERTIES:
     CCPRP =       T  CCPRPE =       F
     OPTIONS FOR INITIAL GUESSES:
     MINIT =       2  MACT =       0  NOACT =       0  NUACT =       0
     NO DOUBLE EXCITATIONS WILL BE INCLUDED IN THE INITIAL GUESS

     ------------------------------------------
     THE POINT GROUP IS DNH, NAXIS= 2, ORDER= 8
     ------------------------------------------

 -- VARIATIONAL SPACE WILL BE RESTRICTED TO PURE SPHERICAL HARMONICS ONLY --
 AFTER EXCLUDING CONTAMINANT COMBINATIONS FROM THE CARTESIAN GAUSSIAN BASIS
 SET, THE NUMBER OF SPHERICAL HARMONICS KEPT IN THE VARIATION SPACE IS   76

     DIMENSIONS OF THE SYMMETRY SUBSPACES ARE
 AG  =   14     AU  =    5     B3U =   14     B3G =    5     B1G =   14
 B1U =    5     B2U =   14     B2G =    5

 ..... DONE SETTING UP THE RUN .....
 STEP CPU TIME =     0.04 TOTAL CPU TIME =          0.0 (      0.0 MIN)
 TOTAL WALL CLOCK TIME=          0.0 SECONDS, CPU UTILIZATION IS   100.00%

          ********************
          1 ELECTRON INTEGRALS
          ********************
 ...... END OF ONE-ELECTRON INTEGRALS ......
 STEP CPU TIME =     0.02 TOTAL CPU TIME =          0.1 (      0.0 MIN)
 TOTAL WALL CLOCK TIME=          0.1 SECONDS, CPU UTILIZATION IS   100.00%

          -------------
          GUESS OPTIONS
          -------------
          GUESS =HUCKEL            NORB  =       0          NORDER=       0
          MIX   =       F          PRTMO =       F          PUNMO =       F
          TOLZ  = 1.0E-08          TOLE  = 1.0E-05
          SYMDEN=       F          PURIFY=       F

 INITIAL GUESS ORBITALS GENERATED BY HUCKEL   ROUTINE.
 HUCKEL GUESS REQUIRES     54920 WORDS.

 STATISTICS FOR GENERATION OF SYMMETRY ORBITAL -Q- MATRIX
 NUMBER OF CARTESIAN ATOMIC ORBITALS=         80
 NUMBER OF SPHERICAL CONTAMINANTS DROPPED=     4
 NUMBER OF LINEARLY DEPENDENT MOS DROPPED=     0
 TOTAL NUMBER OF MOS IN VARIATION SPACE=      76

 SYMMETRIES FOR INITIAL GUESS ORBITALS FOLLOW.   BOTH SET(S).
    14 ORBITALS ARE OCCUPIED (    4 CORE ORBITALS).
     5=AG       6=B2U      7=B3U      8=AG       9=B1G     10=B1U     11=AG  
    12=B2U     13=B3U     14=B3G     15=B2G     16=AU      17=B1G     18=B2U 
    19=B3U     20=AG      21=AG      22=AG      23=AG      24=AG  
 ...... END OF INITIAL ORBITAL SELECTION ......
 STEP CPU TIME =     0.01 TOTAL CPU TIME =          0.1 (      0.0 MIN)
 TOTAL WALL CLOCK TIME=          0.1 SECONDS, CPU UTILIZATION IS    87.50%

                    ----------------------
                    AO INTEGRAL TECHNOLOGY
                    ----------------------
     S,P,L SHELL ROTATED AXIS INTEGRALS, REPROGRAMMED BY
        KAZUYA ISHIMURA (IMS) AND JOSE SIERRA (SYNSTAR).
     S,P,D,L SHELL ROTATED AXIS INTEGRALS PROGRAMMED BY
        KAZUYA ISHIMURA (INSTITUTE FOR MOLECULAR SCIENCE).
     S,P,D,F,G SHELL TO TOTAL QUARTET ANGULAR MOMENTUM SUM 5,
        ERIC PROGRAM BY GRAHAM FLETCHER (ELORET AND NASA ADVANCED
        SUPERCOMPUTING DIVISION, AMES RESEARCH CENTER).
     S,P,D,F,G,L SHELL GENERAL RYS QUADRATURE PROGRAMMED BY
        MICHEL DUPUIS (PACIFIC NORTHWEST NATIONAL LABORATORY).

          --------------------
          2 ELECTRON INTEGRALS
          --------------------

 THE -PK- OPTION IS OFF, THE INTEGRALS ARE NOT IN SUPERMATRIX FORM.
 STORING   15000 INTEGRALS/RECORD ON DISK, USING 12 BYTES/INTEGRAL.
 TWO ELECTRON INTEGRAL EVALUATION REQUIRES   91062 WORDS OF MEMORY.
 SCHWARZ INEQUALITY OVERHEAD:      3240 INTEGRALS, T=        0.00
 II,JST,KST,LST =  1  1  1  1 NREC =         1 INTLOC =    1
 II,JST,KST,LST =  2  1  1  1 NREC =         1 INTLOC =    1
 II,JST,KST,LST =  3  1  1  1 NREC =         1 INTLOC =    1
 II,JST,KST,LST =  4  1  1  1 NREC =         1 INTLOC =    1
 II,JST,KST,LST =  5  1  1  1 NREC =         1 INTLOC =    1
 II,JST,KST,LST =  6  1  1  1 NREC =         1 INTLOC =    1
 II,JST,KST,LST =  7  1  1  1 NREC =         1 INTLOC =    1
 II,JST,KST,LST =  8  1  1  1 NREC =         1 INTLOC =    1
 II,JST,KST,LST =  9  1  1  1 NREC =         1 INTLOC =    1
 II,JST,KST,LST = 10  1  1  1 NREC =         1 INTLOC =    1
 II,JST,KST,LST = 11  1  1  1 NREC =         1 INTLOC =    1
 II,JST,KST,LST = 12  1  1  1 NREC =         1 INTLOC =    1
 II,JST,KST,LST = 13  1  1  1 NREC =         1 INTLOC =    1
 II,JST,KST,LST = 14  1  1  1 NREC =         1 INTLOC =    1
 II,JST,KST,LST = 15  1  1  1 NREC =         1 INTLOC =    1
 II,JST,KST,LST = 16  1  1  1 NREC =         1 INTLOC =    1
 II,JST,KST,LST = 17  1  1  1 NREC =         1 INTLOC =    1
 II,JST,KST,LST = 18  1  1  1 NREC =         1 INTLOC =    1
 II,JST,KST,LST = 19  1  1  1 NREC =         1 INTLOC =    1
 II,JST,KST,LST = 20  1  1  1 NREC =         1 INTLOC =   20
 II,JST,KST,LST = 21  1  1  1 NREC =         1 INTLOC =  187
 II,JST,KST,LST = 22  1  1  1 NREC =         1 INTLOC =  814
 II,JST,KST,LST = 23  1  1  1 NREC =         1 INTLOC = 6746
 II,JST,KST,LST = 24  1  1  1 NREC =         2 INTLOC =14475
 II,JST,KST,LST = 25  1  1  1 NREC =        15 INTLOC =  993
 II,JST,KST,LST = 26  1  1  1 NREC =        15 INTLOC =  993
 II,JST,KST,LST = 27  1  1  1 NREC =        15 INTLOC =  993
 II,JST,KST,LST = 28  1  1  1 NREC =        15 INTLOC =  993
 II,JST,KST,LST = 29  1  1  1 NREC =        15 INTLOC =  993
 II,JST,KST,LST = 30  1  1  1 NREC =        15 INTLOC =  993
 II,JST,KST,LST = 31  1  1  1 NREC =        15 INTLOC =  993
 II,JST,KST,LST = 32  1  1  1 NREC =        15 INTLOC =  993
 II,JST,KST,LST = 33  1  1  1 NREC =        15 INTLOC =  993
 II,JST,KST,LST = 34  1  1  1 NREC =        15 INTLOC =  993
 II,JST,KST,LST = 35  1  1  1 NREC =        19 INTLOC = 9865
 II,JST,KST,LST = 36  1  1  1 NREC =        25 INTLOC = 4788
 SCHWARZ INEQUALITY TEST SKIPPED           0 INTEGRAL BLOCKS.
 TOTAL NUMBER OF NONZERO TWO-ELECTRON INTEGRALS =              695628
         47 INTEGRAL RECORDS WERE STORED ON DISK FILE  8.
  ...... END OF TWO-ELECTRON INTEGRALS .....
 STEP CPU TIME =     0.19 TOTAL CPU TIME =          0.3 (      0.0 MIN)
 TOTAL WALL CLOCK TIME=          0.3 SECONDS, CPU UTILIZATION IS    96.30%

          --------------------------
                 RHF SCF CALCULATION
          --------------------------

     NUCLEAR ENERGY =        97.6702716751
     MAXIT =  100     NPUNCH=    2
     EXTRAP=T  DAMP=F  SHIFT=F  RSTRCT=F  DIIS=T  DEM=F  SOSCF=F
     DENSITY MATRIX CONV=  1.00E-10
     MEMORY REQUIRED FOR RHF ITERS=     81310 WORDS.

 ITER EX DEM     TOTAL ENERGY        E CHANGE  DENSITY CHANGE    DIIS ERROR
          * * *   INITIATING DIIS PROCEDURE   * * *
   1  0  0     -153.2375690443  -153.2375690443   0.128931551   0.453802428
   2  1  0     -153.6194590278    -0.3818899834   0.064960275   0.098442767
   3  2  0     -153.6462489703    -0.0267899425   0.014995037   0.037672916
   4  3  0     -153.6508617029    -0.0046127325   0.007038484   0.008610235
   5  4  0     -153.6511670119    -0.0003053091   0.000541837   0.001155853
   6  5  0     -153.6511709245    -0.0000039126   0.000122488   0.000199018
   7  6  0     -153.6511710838    -0.0000001593   0.000032789   0.000038240
   8  7  0     -153.6511710905    -0.0000000067   0.000007220   0.000005907
   9  8  0     -153.6511710906    -0.0000000001   0.000000742   0.000000475
  10  9  0     -153.6511710906    -0.0000000000   0.000000091   0.000000085
  11 10  0     -153.6511710906     0.0000000000   0.000000013   0.000000014
  12 11  0     -153.6511710906     0.0000000000   0.000000003   0.000000002
  13 12  0     -153.6511710906     0.0000000000   0.000000000   0.000000000
  14 13  0     -153.6511710906     0.0000000000   0.000000000   0.000000000
  15 14  0     -153.6511710906    -0.0000000000   0.000000000   0.000000000

 RHF HAS CONVERGED, NOW COMPUTING EXACT TOTAL FOCK MATRIX
 FOR USE DURING THE COUPLED CLUSTER CALCULATION THAT FOLLOWS.

          -----------------
          DENSITY CONVERGED
          -----------------
     TIME TO FORM FOCK OPERATORS=       0.2 SECONDS (       0.0 SEC/ITER)
     TIME TO SOLVE SCF EQUATIONS=       0.1 SECONDS (       0.0 SEC/ITER)

 FINAL RHF ENERGY IS     -153.6511710906 AFTER  15 ITERATIONS

          ------------
          EIGENVECTORS
          ------------

                      1          2          3          4          5
                  -11.2527   -11.2522   -11.2513   -11.2508    -1.1461
                     AG         B2U        B3U        B1G        AG  
    1  C  1  S    0.500690   0.500769   0.501164   0.501337  -0.013705
    2  C  1  S    0.001598   0.001726   0.002173   0.002435   0.213890
    3  C  1  S   -0.002013  -0.003137  -0.004350  -0.008864   0.121973
    4  C  1  X   -0.000149  -0.000130  -0.000010  -0.000032   0.087813
    5  C  1  Y    0.000077  -0.000056   0.000089   0.000177   0.065604
    6  C  1  Z   -0.000000   0.000000   0.000000  -0.000000   0.000000
    7  C  1  X    0.000056   0.000177  -0.001364  -0.002648   0.013837
    8  C  1  Y   -0.000047  -0.000707  -0.000211  -0.002308   0.013848
    9  C  1  Z   -0.000000   0.000000   0.000000  -0.000000   0.000000
   10  C  1 XX    0.000223   0.000100   0.000568   0.000261   0.007308
   11  C  1 YY   -0.000212   0.000281  -0.000163   0.000343   0.005859
   12  C  1 ZZ   -0.000010  -0.000381  -0.000405  -0.000604  -0.013167
   13  C  1 XY    0.000109   0.000439   0.000521   0.001046   0.002985
   14  C  1 XZ   -0.000000   0.000000   0.000000  -0.000000   0.000000
   15  C  1 YZ   -0.000000   0.000000   0.000000  -0.000000   0.000000
   16  C  2  S    0.500690   0.500769  -0.501164  -0.501337  -0.013705
   17  C  2  S    0.001598   0.001726  -0.002173  -0.002435   0.213890
   18  C  2  S   -0.002013  -0.003137   0.004350   0.008864   0.121973
   19  C  2  X    0.000149   0.000130  -0.000010  -0.000032  -0.087813
   20  C  2  Y    0.000077  -0.000056  -0.000089  -0.000177   0.065604
   21  C  2  Z   -0.000000   0.000000   0.000000  -0.000000   0.000000
   22  C  2  X   -0.000056  -0.000177  -0.001364  -0.002648  -0.013837
   23  C  2  Y   -0.000047  -0.000707   0.000211   0.002308   0.013848
   24  C  2  Z   -0.000000   0.000000   0.000000  -0.000000   0.000000
   25  C  2 XX    0.000223   0.000100  -0.000568  -0.000261   0.007308
   26  C  2 YY   -0.000212   0.000281   0.000163  -0.000343   0.005859
   27  C  2 ZZ   -0.000010  -0.000381   0.000405   0.000604  -0.013167
   28  C  2 XY   -0.000109  -0.000439   0.000521   0.001046  -0.002985
   29  C  2 XZ   -0.000000   0.000000   0.000000  -0.000000   0.000000
   30  C  2 YZ   -0.000000   0.000000   0.000000  -0.000000   0.000000
   31  C  3  S    0.500690  -0.500769   0.501164  -0.501337  -0.013705
   32  C  3  S    0.001598  -0.001726   0.002173  -0.002435   0.213890
   33  C  3  S   -0.002013   0.003137  -0.004350   0.008864   0.121973
   34  C  3  X   -0.000149   0.000130  -0.000010   0.000032   0.087813
   35  C  3  Y   -0.000077  -0.000056  -0.000089   0.000177  -0.065604
   36  C  3  Z   -0.000000   0.000000   0.000000  -0.000000   0.000000
   37  C  3  X    0.000056  -0.000177  -0.001364   0.002648   0.013837
   38  C  3  Y    0.000047  -0.000707   0.000211  -0.002308  -0.013848
   39  C  3  Z   -0.000000   0.000000   0.000000  -0.000000   0.000000
   40  C  3 XX    0.000223  -0.000100   0.000568  -0.000261   0.007308
   41  C  3 YY   -0.000212  -0.000281  -0.000163  -0.000343   0.005859
   42  C  3 ZZ   -0.000010   0.000381  -0.000405   0.000604  -0.013167
   43  C  3 XY   -0.000109   0.000439  -0.000521   0.001046  -0.002985
   44  C  3 XZ   -0.000000   0.000000   0.000000  -0.000000   0.000000
   45  C  3 YZ   -0.000000   0.000000   0.000000  -0.000000   0.000000
   46  C  4  S    0.500690  -0.500769  -0.501164   0.501337  -0.013705
   47  C  4  S    0.001598  -0.001726  -0.002173   0.002435   0.213890
   48  C  4  S   -0.002013   0.003137   0.004350  -0.008864   0.121973
   49  C  4  X    0.000149  -0.000130  -0.000010   0.000032  -0.087813
   50  C  4  Y   -0.000077  -0.000056   0.000089  -0.000177  -0.065604
   51  C  4  Z   -0.000000   0.000000   0.000000  -0.000000   0.000000
   52  C  4  X   -0.000056   0.000177  -0.001364   0.002648  -0.013837
   53  C  4  Y    0.000047  -0.000707  -0.000211   0.002308  -0.013848
   54  C  4  Z   -0.000000   0.000000   0.000000  -0.000000   0.000000
   55  C  4 XX    0.000223  -0.000100  -0.000568   0.000261   0.007308
   56  C  4 YY   -0.000212  -0.000281   0.000163   0.000343   0.005859
   57  C  4 ZZ   -0.000010   0.000381   0.000405  -0.000604  -0.013167
   58  C  4 XY    0.000109  -0.000439  -0.000521   0.001046   0.002985
   59  C  4 XZ   -0.000000   0.000000   0.000000  -0.000000   0.000000
   60  C  4 YZ   -0.000000   0.000000   0.000000  -0.000000   0.000000
   61  H  5  S   -0.000292  -0.000485  -0.000584  -0.000864   0.043518
   62  H  5  S    0.000667   0.000463   0.000221  -0.000314  -0.000039
   63  H  5  X   -0.000058  -0.000329  -0.000191  -0.000418   0.005419
   64  H  5  Y   -0.000196  -0.000229  -0.000441  -0.000392   0.005500
   65  H  5  Z   -0.000000   0.000000   0.000000  -0.000000   0.000000
   66  H  6  S   -0.000292  -0.000485   0.000584   0.000864   0.043518
   67  H  6  S    0.000667   0.000463  -0.000221   0.000314  -0.000039
   68  H  6  X    0.000058   0.000329  -0.000191  -0.000418  -0.005419
   69  H  6  Y   -0.000196  -0.000229   0.000441   0.000392   0.005500
   70  H  6  Z   -0.000000   0.000000   0.000000  -0.000000   0.000000
   71  H  7  S   -0.000292   0.000485  -0.000584   0.000864   0.043518
   72  H  7  S    0.000667  -0.000463   0.000221   0.000314  -0.000039
   73  H  7  X   -0.000058   0.000329  -0.000191   0.000418   0.005419
   74  H  7  Y    0.000196  -0.000229   0.000441  -0.000392  -0.005500
   75  H  7  Z   -0.000000   0.000000   0.000000  -0.000000   0.000000
   76  H  8  S   -0.000292   0.000485   0.000584  -0.000864   0.043518
   77  H  8  S    0.000667  -0.000463  -0.000221  -0.000314  -0.000039
   78  H  8  X    0.000058  -0.000329  -0.000191   0.000418  -0.005419
   79  H  8  Y    0.000196  -0.000229  -0.000441   0.000392  -0.005500
   80  H  8  Z   -0.000000   0.000000   0.000000  -0.000000   0.000000

                      6          7          8          9         10
                   -0.9017    -0.8235    -0.6969    -0.6863    -0.5444
                     B2U        B3U        B1G        AG         B2U 
    1  C  1  S   -0.013367  -0.009973  -0.007912  -0.005646   0.002628
    2  C  1  S    0.206076   0.186786   0.145855   0.032633   0.044063
    3  C  1  S    0.172942   0.177447   0.208762   0.055517   0.026304
    4  C  1  X    0.086048  -0.115549  -0.111219  -0.164713   0.280797
    5  C  1  Y   -0.085131   0.038760  -0.094712  -0.166890   0.057092
    6  C  1  Z   -0.000000   0.000000   0.000000  -0.000000   0.000000
    7  C  1  X    0.035925  -0.014255  -0.010225  -0.047590   0.106561
    8  C  1  Y   -0.003195   0.038493   0.004958  -0.049390   0.018781
    9  C  1  Z   -0.000000   0.000000   0.000000  -0.000000   0.000000
   10  C  1 XX    0.019717  -0.011029   0.001148   0.000581   0.013507
   11  C  1 YY   -0.016067   0.018640   0.000840  -0.003134  -0.015557
   12  C  1 ZZ   -0.003650  -0.007610  -0.001988   0.002553   0.002050
   13  C  1 XY   -0.001618  -0.001862   0.015265  -0.007557  -0.013550
   14  C  1 XZ   -0.000000   0.000000   0.000000  -0.000000   0.000000
   15  C  1 YZ   -0.000000   0.000000   0.000000  -0.000000   0.000000
   16  C  2  S   -0.013367   0.009973   0.007912  -0.005646   0.002628
   17  C  2  S    0.206076  -0.186786  -0.145855   0.032633   0.044063
   18  C  2  S    0.172942  -0.177447  -0.208762   0.055517   0.026304
   19  C  2  X   -0.086048  -0.115549  -0.111219   0.164713  -0.280797
   20  C  2  Y   -0.085131  -0.038760   0.094712  -0.166890   0.057092
   21  C  2  Z   -0.000000   0.000000   0.000000  -0.000000   0.000000
   22  C  2  X   -0.035925  -0.014255  -0.010225   0.047590  -0.106561
   23  C  2  Y   -0.003195  -0.038493  -0.004958  -0.049390   0.018781
   24  C  2  Z   -0.000000   0.000000   0.000000  -0.000000   0.000000
   25  C  2 XX    0.019717   0.011029  -0.001148   0.000581   0.013507
   26  C  2 YY   -0.016067  -0.018640  -0.000840  -0.003134  -0.015557
   27  C  2 ZZ   -0.003650   0.007610   0.001988   0.002553   0.002050
   28  C  2 XY    0.001618  -0.001862   0.015265   0.007557   0.013550
   29  C  2 XZ   -0.000000   0.000000   0.000000  -0.000000   0.000000
   30  C  2 YZ   -0.000000   0.000000   0.000000  -0.000000   0.000000
   31  C  3  S    0.013367  -0.009973   0.007912  -0.005646  -0.002628
   32  C  3  S   -0.206076   0.186786  -0.145855   0.032633  -0.044063
   33  C  3  S   -0.172942   0.177447  -0.208762   0.055517  -0.026304
   34  C  3  X   -0.086048  -0.115549   0.111219  -0.164713  -0.280797
   35  C  3  Y   -0.085131  -0.038760  -0.094712   0.166890   0.057092
   36  C  3  Z   -0.000000   0.000000   0.000000  -0.000000   0.000000
   37  C  3  X   -0.035925  -0.014255   0.010225  -0.047590  -0.106561
   38  C  3  Y   -0.003195  -0.038493   0.004958   0.049390   0.018781
   39  C  3  Z   -0.000000   0.000000   0.000000  -0.000000   0.000000
   40  C  3 XX   -0.019717  -0.011029  -0.001148   0.000581  -0.013507
   41  C  3 YY    0.016067   0.018640  -0.000840  -0.003134   0.015557
   42  C  3 ZZ    0.003650  -0.007610   0.001988   0.002553  -0.002050
   43  C  3 XY   -0.001618   0.001862   0.015265   0.007557  -0.013550
   44  C  3 XZ   -0.000000   0.000000   0.000000  -0.000000   0.000000
   45  C  3 YZ   -0.000000   0.000000   0.000000  -0.000000   0.000000
   46  C  4  S    0.013367   0.009973  -0.007912  -0.005646  -0.002628
   47  C  4  S   -0.206076  -0.186786   0.145855   0.032633  -0.044063
   48  C  4  S   -0.172942  -0.177447   0.208762   0.055517  -0.026304
   49  C  4  X    0.086048  -0.115549   0.111219   0.164713   0.280797
   50  C  4  Y   -0.085131   0.038760   0.094712   0.166890   0.057092
   51  C  4  Z   -0.000000   0.000000   0.000000  -0.000000   0.000000
   52  C  4  X    0.035925  -0.014255   0.010225   0.047590   0.106561
   53  C  4  Y   -0.003195   0.038493  -0.004958   0.049390   0.018781
   54  C  4  Z   -0.000000   0.000000   0.000000  -0.000000   0.000000
   55  C  4 XX   -0.019717   0.011029   0.001148   0.000581  -0.013507
   56  C  4 YY    0.016067  -0.018640   0.000840  -0.003134   0.015557
   57  C  4 ZZ    0.003650   0.007610  -0.001988   0.002553  -0.002050
   58  C  4 XY    0.001618   0.001862   0.015265  -0.007557   0.013550
   59  C  4 XZ   -0.000000   0.000000   0.000000  -0.000000   0.000000
   60  C  4 YZ   -0.000000   0.000000   0.000000  -0.000000   0.000000
   61  H  5  S    0.113203   0.145519   0.209246   0.198562  -0.187509
   62  H  5  S    0.024064   0.037181   0.070601   0.056781  -0.079414
   63  H  5  X    0.012772   0.008687   0.012173   0.012555  -0.003683
   64  H  5  Y    0.007623   0.013662   0.012206   0.012981  -0.011368
   65  H  5  Z   -0.000000   0.000000   0.000000  -0.000000   0.000000
   66  H  6  S    0.113203  -0.145519  -0.209246   0.198562  -0.187509
   67  H  6  S    0.024064  -0.037181  -0.070601   0.056781  -0.079414
   68  H  6  X   -0.012772   0.008687   0.012173  -0.012555   0.003683
   69  H  6  Y    0.007623  -0.013662  -0.012206   0.012981  -0.011368
   70  H  6  Z   -0.000000   0.000000   0.000000  -0.000000   0.000000
   71  H  7  S   -0.113203   0.145519  -0.209246   0.198562   0.187509
   72  H  7  S   -0.024064   0.037181  -0.070601   0.056781   0.079414
   73  H  7  X   -0.012772   0.008687  -0.012173   0.012555   0.003683
   74  H  7  Y    0.007623  -0.013662   0.012206  -0.012981  -0.011368
   75  H  7  Z   -0.000000   0.000000   0.000000  -0.000000   0.000000
   76  H  8  S   -0.113203  -0.145519   0.209246   0.198562   0.187509
   77  H  8  S   -0.024064  -0.037181   0.070601   0.056781   0.079414
   78  H  8  X    0.012772   0.008687  -0.012173  -0.012555  -0.003683
   79  H  8  Y    0.007623   0.013662  -0.012206  -0.012981  -0.011368
   80  H  8  Z   -0.000000   0.000000   0.000000  -0.000000   0.000000

                     11         12         13         14         15
                   -0.5289    -0.4653    -0.4580    -0.2684     0.0878
                     AG         B1U        B3U        B3G        B2G 
    1  C  1  S    0.000278  -0.000000   0.001115  -0.000000  -0.000000
    2  C  1  S    0.005816  -0.000000   0.058504  -0.000000  -0.000000
    3  C  1  S   -0.020774  -0.000000   0.098948  -0.000000  -0.000000
    4  C  1  X    0.230965  -0.000000   0.017696  -0.000000  -0.000000
    5  C  1  Y   -0.219494  -0.000000   0.278567  -0.000000  -0.000000
    6  C  1  Z   -0.000000   0.264404  -0.000000   0.293594   0.250930
    7  C  1  X    0.101763  -0.000000   0.015177  -0.000000  -0.000000
    8  C  1  Y   -0.101689  -0.000000   0.155697  -0.000000  -0.000000
    9  C  1  Z   -0.000000   0.164314  -0.000000   0.282612   0.401594
   10  C  1 XX    0.016442  -0.000000  -0.017167  -0.000000  -0.000000
   11  C  1 YY   -0.020576  -0.000000   0.020373  -0.000000  -0.000000
   12  C  1 ZZ    0.004134  -0.000000  -0.003206  -0.000000  -0.000000
   13  C  1 XY   -0.001044  -0.000000  -0.024015  -0.000000  -0.000000
   14  C  1 XZ   -0.000000   0.025047  -0.000000   0.024953  -0.018931
   15  C  1 YZ   -0.000000   0.013037  -0.000000  -0.013397   0.011024
   16  C  2  S    0.000278  -0.000000  -0.001115  -0.000000  -0.000000
   17  C  2  S    0.005816  -0.000000  -0.058504  -0.000000  -0.000000
   18  C  2  S   -0.020774  -0.000000  -0.098948  -0.000000  -0.000000
   19  C  2  X   -0.230965  -0.000000   0.017696  -0.000000  -0.000000
   20  C  2  Y   -0.219494  -0.000000  -0.278567  -0.000000  -0.000000
   21  C  2  Z   -0.000000   0.264404  -0.000000   0.293594  -0.250930
   22  C  2  X   -0.101763  -0.000000   0.015177  -0.000000  -0.000000
   23  C  2  Y   -0.101689  -0.000000  -0.155697  -0.000000  -0.000000
   24  C  2  Z   -0.000000   0.164314  -0.000000   0.282612  -0.401594
   25  C  2 XX    0.016442  -0.000000   0.017167  -0.000000  -0.000000
   26  C  2 YY   -0.020576  -0.000000  -0.020373  -0.000000  -0.000000
   27  C  2 ZZ    0.004134  -0.000000   0.003206  -0.000000  -0.000000
   28  C  2 XY    0.001044  -0.000000  -0.024015  -0.000000  -0.000000
   29  C  2 XZ   -0.000000  -0.025047  -0.000000  -0.024953  -0.018931
   30  C  2 YZ   -0.000000   0.013037  -0.000000  -0.013397  -0.011024
   31  C  3  S    0.000278  -0.000000   0.001115  -0.000000  -0.000000
   32  C  3  S    0.005816  -0.000000   0.058504  -0.000000  -0.000000
   33  C  3  S   -0.020774  -0.000000   0.098948  -0.000000  -0.000000
   34  C  3  X    0.230965  -0.000000   0.017696  -0.000000  -0.000000
   35  C  3  Y    0.219494  -0.000000  -0.278567  -0.000000  -0.000000
   36  C  3  Z   -0.000000   0.264404  -0.000000  -0.293594   0.250930
   37  C  3  X    0.101763  -0.000000   0.015177  -0.000000  -0.000000
   38  C  3  Y    0.101689  -0.000000  -0.155697  -0.000000  -0.000000
   39  C  3  Z   -0.000000   0.164314  -0.000000  -0.282612   0.401594
   40  C  3 XX    0.016442  -0.000000  -0.017167  -0.000000  -0.000000
   41  C  3 YY   -0.020576  -0.000000   0.020373  -0.000000  -0.000000
   42  C  3 ZZ    0.004134  -0.000000  -0.003206  -0.000000  -0.000000
   43  C  3 XY    0.001044  -0.000000   0.024015  -0.000000  -0.000000
   44  C  3 XZ   -0.000000   0.025047  -0.000000  -0.024953  -0.018931
   45  C  3 YZ   -0.000000  -0.013037  -0.000000  -0.013397  -0.011024
   46  C  4  S    0.000278  -0.000000  -0.001115  -0.000000  -0.000000
   47  C  4  S    0.005816  -0.000000  -0.058504  -0.000000  -0.000000
   48  C  4  S   -0.020774  -0.000000  -0.098948  -0.000000  -0.000000
   49  C  4  X   -0.230965  -0.000000   0.017696  -0.000000  -0.000000
   50  C  4  Y    0.219494  -0.000000   0.278567  -0.000000  -0.000000
   51  C  4  Z   -0.000000   0.264404  -0.000000  -0.293594  -0.250930
   52  C  4  X   -0.101763  -0.000000   0.015177  -0.000000  -0.000000
   53  C  4  Y    0.101689  -0.000000   0.155697  -0.000000  -0.000000
   54  C  4  Z   -0.000000   0.164314  -0.000000  -0.282612  -0.401594
   55  C  4 XX    0.016442  -0.000000   0.017167  -0.000000  -0.000000
   56  C  4 YY   -0.020576  -0.000000  -0.020373  -0.000000  -0.000000
   57  C  4 ZZ    0.004134  -0.000000   0.003206  -0.000000  -0.000000
   58  C  4 XY   -0.001044  -0.000000   0.024015  -0.000000  -0.000000
   59  C  4 XZ   -0.000000  -0.025047  -0.000000   0.024953  -0.018931
   60  C  4 YZ   -0.000000  -0.013037  -0.000000  -0.013397   0.011024
   61  H  5  S   -0.006203  -0.000000  -0.174980  -0.000000  -0.000000
   62  H  5  S   -0.004683  -0.000000  -0.084089  -0.000000  -0.000000
   63  H  5  X    0.005745  -0.000000  -0.010264  -0.000000  -0.000000
   64  H  5  Y   -0.004848  -0.000000  -0.002255  -0.000000  -0.000000
   65  H  5  Z   -0.000000   0.010603  -0.000000   0.011489   0.013973
   66  H  6  S   -0.006203  -0.000000   0.174980  -0.000000  -0.000000
   67  H  6  S   -0.004683  -0.000000   0.084089  -0.000000  -0.000000
   68  H  6  X   -0.005745  -0.000000  -0.010264  -0.000000  -0.000000
   69  H  6  Y   -0.004848  -0.000000   0.002255  -0.000000  -0.000000
   70  H  6  Z   -0.000000   0.010603  -0.000000   0.011489  -0.013973
   71  H  7  S   -0.006203  -0.000000  -0.174980  -0.000000  -0.000000
   72  H  7  S   -0.004683  -0.000000  -0.084089  -0.000000  -0.000000
   73  H  7  X    0.005745  -0.000000  -0.010264  -0.000000  -0.000000
   74  H  7  Y    0.004848  -0.000000   0.002255  -0.000000  -0.000000
   75  H  7  Z   -0.000000   0.010603  -0.000000  -0.011489   0.013973
   76  H  8  S   -0.006203  -0.000000   0.174980  -0.000000  -0.000000
   77  H  8  S   -0.004683  -0.000000   0.084089  -0.000000  -0.000000
   78  H  8  X   -0.005745  -0.000000  -0.010264  -0.000000  -0.000000
   79  H  8  Y    0.004848  -0.000000  -0.002255  -0.000000  -0.000000
   80  H  8  Z   -0.000000   0.010603  -0.000000  -0.011489  -0.013973

                     16         17         18         19         20
                    0.2104     0.2204     0.2232     0.2345     0.2570
                     AG         B2U        B1G        B3U        AU  
    1  C  1  S    0.022687   0.019549  -0.029982   0.022408  -0.000000
    2  C  1  S   -0.034623  -0.075487  -0.158597  -0.054065  -0.000000
    3  C  1  S   -0.835953  -0.926701   1.164522  -0.879573  -0.000000
    4  C  1  X    0.093082   0.108812   0.066416   0.035460  -0.000000
    5  C  1  Y    0.089064  -0.021987   0.020115   0.094409  -0.000000
    6  C  1  Z    0.000000   0.000000  -0.000000   0.000000   0.270335
    7  C  1  X    0.316286   0.575105   1.370420   0.296916  -0.000000
    8  C  1  Y    0.283280   0.171887   1.213723   0.614341  -0.000000
    9  C  1  Z    0.000000   0.000000  -0.000000   0.000000   0.704884
   10  C  1 XX   -0.000600  -0.007231   0.014224  -0.002267  -0.000000
   11  C  1 YY    0.000693   0.007450   0.017124  -0.006641  -0.000000
   12  C  1 ZZ   -0.000093  -0.000219  -0.031347   0.008908  -0.000000
   13  C  1 XY    0.003975  -0.015818   0.006783  -0.015197  -0.000000
   14  C  1 XZ    0.000000   0.000000  -0.000000   0.000000  -0.015955
   15  C  1 YZ    0.000000   0.000000  -0.000000   0.000000  -0.010843
   16  C  2  S    0.022687   0.019549   0.029982  -0.022408  -0.000000
   17  C  2  S   -0.034623  -0.075487   0.158597   0.054065  -0.000000
   18  C  2  S   -0.835953  -0.926701  -1.164522   0.879573  -0.000000
   19  C  2  X   -0.093082  -0.108812   0.066416   0.035460  -0.000000
   20  C  2  Y    0.089064  -0.021987  -0.020115  -0.094409  -0.000000
   21  C  2  Z    0.000000   0.000000  -0.000000   0.000000  -0.270335
   22  C  2  X   -0.316286  -0.575105   1.370420   0.296916  -0.000000
   23  C  2  Y    0.283280   0.171887  -1.213723  -0.614341  -0.000000
   24  C  2  Z    0.000000   0.000000  -0.000000   0.000000  -0.704884
   25  C  2 XX   -0.000600  -0.007231  -0.014224   0.002267  -0.000000
   26  C  2 YY    0.000693   0.007450  -0.017124   0.006641  -0.000000
   27  C  2 ZZ   -0.000093  -0.000219   0.031347  -0.008908  -0.000000
   28  C  2 XY   -0.003975   0.015818   0.006783  -0.015197  -0.000000
   29  C  2 XZ    0.000000   0.000000  -0.000000   0.000000  -0.015955
   30  C  2 YZ    0.000000   0.000000  -0.000000   0.000000   0.010843
   31  C  3  S    0.022687  -0.019549   0.029982   0.022408  -0.000000
   32  C  3  S   -0.034623   0.075487   0.158597  -0.054065  -0.000000
   33  C  3  S   -0.835953   0.926701  -1.164522  -0.879573  -0.000000
   34  C  3  X    0.093082  -0.108812  -0.066416   0.035460  -0.000000
   35  C  3  Y   -0.089064  -0.021987   0.020115  -0.094409  -0.000000
   36  C  3  Z    0.000000   0.000000  -0.000000   0.000000  -0.270335
   37  C  3  X    0.316286  -0.575105  -1.370420   0.296916  -0.000000
   38  C  3  Y   -0.283280   0.171887   1.213723  -0.614341  -0.000000
   39  C  3  Z    0.000000   0.000000  -0.000000   0.000000  -0.704884
   40  C  3 XX   -0.000600   0.007231  -0.014224  -0.002267  -0.000000
   41  C  3 YY    0.000693  -0.007450  -0.017124  -0.006641  -0.000000
   42  C  3 ZZ   -0.000093   0.000219   0.031347   0.008908  -0.000000
   43  C  3 XY   -0.003975  -0.015818   0.006783   0.015197  -0.000000
   44  C  3 XZ    0.000000   0.000000  -0.000000   0.000000   0.015955
   45  C  3 YZ    0.000000   0.000000  -0.000000   0.000000  -0.010843
   46  C  4  S    0.022687  -0.019549  -0.029982  -0.022408  -0.000000
   47  C  4  S   -0.034623   0.075487  -0.158597   0.054065  -0.000000
   48  C  4  S   -0.835953   0.926701   1.164522   0.879573  -0.000000
   49  C  4  X   -0.093082   0.108812  -0.066416   0.035460  -0.000000
   50  C  4  Y   -0.089064  -0.021987  -0.020115   0.094409  -0.000000
   51  C  4  Z    0.000000   0.000000  -0.000000   0.000000   0.270335
   52  C  4  X   -0.316286   0.575105  -1.370420   0.296916  -0.000000
   53  C  4  Y   -0.283280   0.171887  -1.213723   0.614341  -0.000000
   54  C  4  Z    0.000000   0.000000  -0.000000   0.000000   0.704884
   55  C  4 XX   -0.000600   0.007231   0.014224   0.002267  -0.000000
   56  C  4 YY    0.000693  -0.007450   0.017124   0.006641  -0.000000
   57  C  4 ZZ   -0.000093   0.000219  -0.031347  -0.008908  -0.000000
   58  C  4 XY    0.003975   0.015818   0.006783   0.015197  -0.000000
   59  C  4 XZ    0.000000   0.000000  -0.000000   0.000000   0.015955
   60  C  4 YZ    0.000000   0.000000  -0.000000   0.000000   0.010843
   61  H  5  S    0.020998   0.001512   0.048622  -0.013291  -0.000000
   62  H  5  S    1.068868   1.084782   1.585097   1.210000  -0.000000
   63  H  5  X    0.008321   0.016384  -0.003146   0.011580  -0.000000
   64  H  5  Y    0.007949   0.006692  -0.004127   0.016084  -0.000000
   65  H  5  Z    0.000000   0.000000  -0.000000   0.000000   0.022382
   66  H  6  S    0.020998   0.001512  -0.048622   0.013291  -0.000000
   67  H  6  S    1.068868   1.084782  -1.585097  -1.210000  -0.000000
   68  H  6  X   -0.008321  -0.016384  -0.003146   0.011580  -0.000000
   69  H  6  Y    0.007949   0.006692   0.004127  -0.016084  -0.000000
   70  H  6  Z    0.000000   0.000000  -0.000000   0.000000  -0.022382
   71  H  7  S    0.020998  -0.001512  -0.048622  -0.013291  -0.000000
   72  H  7  S    1.068868  -1.084782  -1.585097   1.210000  -0.000000
   73  H  7  X    0.008321  -0.016384   0.003146   0.011580  -0.000000
   74  H  7  Y   -0.007949   0.006692  -0.004127  -0.016084  -0.000000
   75  H  7  Z    0.000000   0.000000  -0.000000   0.000000  -0.022382
   76  H  8  S    0.020998  -0.001512   0.048622   0.013291  -0.000000
   77  H  8  S    1.068868  -1.084782   1.585097  -1.210000  -0.000000
   78  H  8  X   -0.008321   0.016384   0.003146   0.011580  -0.000000
   79  H  8  Y   -0.007949   0.006692   0.004127   0.016084  -0.000000
   80  H  8  Z    0.000000   0.000000  -0.000000   0.000000   0.022382

                     21         22         23         24         25
                    0.3090     0.3878     0.4608     0.5322     0.5947
                     B2U        B3U        B1G        AG         AG  
    1  C  1  S   -0.025647  -0.038863  -0.014557   0.116314  -0.054200
    2  C  1  S    0.051304   0.039916   0.032212   0.230768  -0.110332
    3  C  1  S    0.622378   1.817185   0.475438  -0.177405  -0.016341
    4  C  1  X    0.023373   0.113340  -0.142223   0.031558  -0.315732
    5  C  1  Y    0.216269   0.064226   0.207149   0.117988   0.211406
    6  C  1  Z    0.000000   0.000000  -0.000000  -0.000000  -0.000000
    7  C  1  X    0.147324   1.773338  -0.767556   0.035180   0.454601
    8  C  1  Y    1.120723   0.155779   1.734815  -0.066707  -0.227229
    9  C  1  Z    0.000000   0.000000  -0.000000  -0.000000  -0.000000
   10  C  1 XX    0.014483   0.018500  -0.008740   0.021322  -0.059852
   11  C  1 YY   -0.010079   0.008635   0.001579   0.054278   0.039531
   12  C  1 ZZ   -0.004404  -0.027135   0.007161  -0.075600   0.020321
   13  C  1 XY    0.008693   0.002683  -0.009986   0.124026  -0.013046
   14  C  1 XZ    0.000000   0.000000  -0.000000  -0.000000  -0.000000
   15  C  1 YZ    0.000000   0.000000  -0.000000  -0.000000  -0.000000
   16  C  2  S   -0.025647   0.038863   0.014557   0.116314  -0.054200
   17  C  2  S    0.051304  -0.039916  -0.032212   0.230768  -0.110332
   18  C  2  S    0.622378  -1.817185  -0.475438  -0.177405  -0.016341
   19  C  2  X   -0.023373   0.113340  -0.142223  -0.031558   0.315732
   20  C  2  Y    0.216269  -0.064226  -0.207149   0.117988   0.211406
   21  C  2  Z    0.000000   0.000000  -0.000000  -0.000000  -0.000000
   22  C  2  X   -0.147324   1.773338  -0.767556  -0.035180  -0.454601
   23  C  2  Y    1.120723  -0.155779  -1.734815  -0.066707  -0.227229
   24  C  2  Z    0.000000   0.000000  -0.000000  -0.000000  -0.000000
   25  C  2 XX    0.014483  -0.018500   0.008740   0.021322  -0.059852
   26  C  2 YY   -0.010079  -0.008635  -0.001579   0.054278   0.039531
   27  C  2 ZZ   -0.004404   0.027135  -0.007161  -0.075600   0.020321
   28  C  2 XY   -0.008693   0.002683  -0.009986  -0.124026   0.013046
   29  C  2 XZ    0.000000   0.000000  -0.000000  -0.000000  -0.000000
   30  C  2 YZ    0.000000   0.000000  -0.000000  -0.000000  -0.000000
   31  C  3  S    0.025647  -0.038863   0.014557   0.116314  -0.054200
   32  C  3  S   -0.051304   0.039916  -0.032212   0.230768  -0.110332
   33  C  3  S   -0.622378   1.817185  -0.475438  -0.177405  -0.016341
   34  C  3  X   -0.023373   0.113340   0.142223   0.031558  -0.315732
   35  C  3  Y    0.216269  -0.064226   0.207149  -0.117988  -0.211406
   36  C  3  Z    0.000000   0.000000  -0.000000  -0.000000  -0.000000
   37  C  3  X   -0.147324   1.773338   0.767556   0.035180   0.454601
   38  C  3  Y    1.120723  -0.155779   1.734815   0.066707   0.227229
   39  C  3  Z    0.000000   0.000000  -0.000000  -0.000000  -0.000000
   40  C  3 XX   -0.014483   0.018500   0.008740   0.021322  -0.059852
   41  C  3 YY    0.010079   0.008635  -0.001579   0.054278   0.039531
   42  C  3 ZZ    0.004404  -0.027135  -0.007161  -0.075600   0.020321
   43  C  3 XY    0.008693  -0.002683  -0.009986  -0.124026   0.013046
   44  C  3 XZ    0.000000   0.000000  -0.000000  -0.000000  -0.000000
   45  C  3 YZ    0.000000   0.000000  -0.000000  -0.000000  -0.000000
   46  C  4  S    0.025647   0.038863  -0.014557   0.116314  -0.054200
   47  C  4  S   -0.051304  -0.039916   0.032212   0.230768  -0.110332
   48  C  4  S   -0.622378  -1.817185   0.475438  -0.177405  -0.016341
   49  C  4  X    0.023373   0.113340   0.142223  -0.031558   0.315732
   50  C  4  Y    0.216269   0.064226  -0.207149  -0.117988  -0.211406
   51  C  4  Z    0.000000   0.000000  -0.000000  -0.000000  -0.000000
   52  C  4  X    0.147324   1.773338   0.767556  -0.035180  -0.454601
   53  C  4  Y    1.120723   0.155779  -1.734815   0.066707   0.227229
   54  C  4  Z    0.000000   0.000000  -0.000000  -0.000000  -0.000000
   55  C  4 XX   -0.014483  -0.018500  -0.008740   0.021322  -0.059852
   56  C  4 YY    0.010079  -0.008635   0.001579   0.054278   0.039531
   57  C  4 ZZ    0.004404   0.027135   0.007161  -0.075600   0.020321
   58  C  4 XY   -0.008693  -0.002683  -0.009986   0.124026  -0.013046
   59  C  4 XZ    0.000000   0.000000  -0.000000  -0.000000  -0.000000
   60  C  4 YZ    0.000000   0.000000  -0.000000  -0.000000  -0.000000
   61  H  5  S   -0.007869   0.016087  -0.078370   0.430908  -0.030187
   62  H  5  S    0.791019   0.785587   0.393929  -0.300046   0.088888
   63  H  5  X   -0.009344   0.004915  -0.009170  -0.049973   0.033214
   64  H  5  Y    0.014356  -0.015093   0.024640  -0.046377  -0.011062
   65  H  5  Z    0.000000   0.000000  -0.000000  -0.000000  -0.000000
   66  H  6  S   -0.007869  -0.016087   0.078370   0.430908  -0.030187
   67  H  6  S    0.791019  -0.785587  -0.393929  -0.300046   0.088888
   68  H  6  X    0.009344   0.004915  -0.009170   0.049973  -0.033214
   69  H  6  Y    0.014356   0.015093  -0.024640  -0.046377  -0.011062
   70  H  6  Z    0.000000   0.000000  -0.000000  -0.000000  -0.000000
   71  H  7  S    0.007869   0.016087   0.078370   0.430908  -0.030187
   72  H  7  S   -0.791019   0.785587  -0.393929  -0.300046   0.088888
   73  H  7  X    0.009344   0.004915   0.009170  -0.049973   0.033214
   74  H  7  Y    0.014356   0.015093   0.024640   0.046377   0.011062
   75  H  7  Z    0.000000   0.000000  -0.000000  -0.000000  -0.000000
   76  H  8  S    0.007869  -0.016087  -0.078370   0.430908  -0.030187
   77  H  8  S   -0.791019  -0.785587   0.393929  -0.300046   0.088888
   78  H  8  X   -0.009344   0.004915   0.009170   0.049973  -0.033214
   79  H  8  Y    0.014356  -0.015093  -0.024640   0.046377   0.011062
   80  H  8  Z    0.000000   0.000000  -0.000000  -0.000000  -0.000000

                     26         27         28         29         30
                    0.6010     0.6506     0.6852     0.7348     0.7372
                     B1G        B2U        B1U        B3G        B3U 
    1  C  1  S   -0.089659   0.052606  -0.000000  -0.000000   0.051220
    2  C  1  S    0.065464   0.045250  -0.000000  -0.000000   0.009311
    3  C  1  S    5.234892   0.127540  -0.000000  -0.000000  -0.157728
    4  C  1  X    0.029330   0.307013  -0.000000  -0.000000  -0.185813
    5  C  1  Y    0.015131  -0.231281  -0.000000  -0.000000   0.327210
    6  C  1  Z   -0.000000   0.000000   0.462648  -0.482719  -0.000000
    7  C  1  X    3.346858  -0.326670  -0.000000  -0.000000  -0.027745
    8  C  1  Y    1.827488   0.302415  -0.000000  -0.000000  -0.270880
    9  C  1  Z   -0.000000   0.000000  -0.368633   0.610895  -0.000000
   10  C  1 XX    0.019385   0.014058  -0.000000  -0.000000   0.094101
   11  C  1 YY   -0.014762   0.080300  -0.000000  -0.000000   0.024458
   12  C  1 ZZ   -0.004623  -0.094357  -0.000000  -0.000000  -0.118559
   13  C  1 XY   -0.019496   0.007472  -0.000000  -0.000000   0.010003
   14  C  1 XZ   -0.000000   0.000000   0.093957  -0.074632  -0.000000
   15  C  1 YZ   -0.000000   0.000000   0.068897   0.003872  -0.000000
   16  C  2  S    0.089659   0.052606  -0.000000  -0.000000  -0.051220
   17  C  2  S   -0.065464   0.045250  -0.000000  -0.000000  -0.009311
   18  C  2  S   -5.234892   0.127540  -0.000000  -0.000000   0.157728
   19  C  2  X    0.029330  -0.307013  -0.000000  -0.000000  -0.185813
   20  C  2  Y   -0.015131  -0.231281  -0.000000  -0.000000  -0.327210
   21  C  2  Z   -0.000000   0.000000   0.462648  -0.482719  -0.000000
   22  C  2  X    3.346858   0.326670  -0.000000  -0.000000  -0.027745
   23  C  2  Y   -1.827488   0.302415  -0.000000  -0.000000   0.270880
   24  C  2  Z   -0.000000   0.000000  -0.368633   0.610895  -0.000000
   25  C  2 XX   -0.019385   0.014058  -0.000000  -0.000000  -0.094101
   26  C  2 YY    0.014762   0.080300  -0.000000  -0.000000  -0.024458
   27  C  2 ZZ    0.004623  -0.094357  -0.000000  -0.000000   0.118559
   28  C  2 XY   -0.019496  -0.007472  -0.000000  -0.000000   0.010003
   29  C  2 XZ   -0.000000   0.000000  -0.093957   0.074632  -0.000000
   30  C  2 YZ   -0.000000   0.000000   0.068897   0.003872  -0.000000
   31  C  3  S    0.089659  -0.052606  -0.000000  -0.000000   0.051220
   32  C  3  S   -0.065464  -0.045250  -0.000000  -0.000000   0.009311
   33  C  3  S   -5.234892  -0.127540  -0.000000  -0.000000  -0.157728
   34  C  3  X   -0.029330  -0.307013  -0.000000  -0.000000  -0.185813
   35  C  3  Y    0.015131  -0.231281  -0.000000  -0.000000  -0.327210
   36  C  3  Z   -0.000000   0.000000   0.462648   0.482719  -0.000000
   37  C  3  X   -3.346858   0.326670  -0.000000  -0.000000  -0.027745
   38  C  3  Y    1.827488   0.302415  -0.000000  -0.000000   0.270880
   39  C  3  Z   -0.000000   0.000000  -0.368633  -0.610895  -0.000000
   40  C  3 XX   -0.019385  -0.014058  -0.000000  -0.000000   0.094101
   41  C  3 YY    0.014762  -0.080300  -0.000000  -0.000000   0.024458
   42  C  3 ZZ    0.004623   0.094357  -0.000000  -0.000000  -0.118559
   43  C  3 XY   -0.019496   0.007472  -0.000000  -0.000000  -0.010003
   44  C  3 XZ   -0.000000   0.000000   0.093957   0.074632  -0.000000
   45  C  3 YZ   -0.000000   0.000000  -0.068897   0.003872  -0.000000
   46  C  4  S   -0.089659  -0.052606  -0.000000  -0.000000  -0.051220
   47  C  4  S    0.065464  -0.045250  -0.000000  -0.000000  -0.009311
   48  C  4  S    5.234892  -0.127540  -0.000000  -0.000000   0.157728
   49  C  4  X   -0.029330   0.307013  -0.000000  -0.000000  -0.185813
   50  C  4  Y   -0.015131  -0.231281  -0.000000  -0.000000   0.327210
   51  C  4  Z   -0.000000   0.000000   0.462648   0.482719  -0.000000
   52  C  4  X   -3.346858  -0.326670  -0.000000  -0.000000  -0.027745
   53  C  4  Y   -1.827488   0.302415  -0.000000  -0.000000  -0.270880
   54  C  4  Z   -0.000000   0.000000  -0.368633  -0.610895  -0.000000
   55  C  4 XX    0.019385  -0.014058  -0.000000  -0.000000  -0.094101
   56  C  4 YY   -0.014762  -0.080300  -0.000000  -0.000000  -0.024458
   57  C  4 ZZ   -0.004623   0.094357  -0.000000  -0.000000   0.118559
   58  C  4 XY   -0.019496  -0.007472  -0.000000  -0.000000  -0.010003
   59  C  4 XZ   -0.000000   0.000000  -0.093957  -0.074632  -0.000000
   60  C  4 YZ   -0.000000   0.000000  -0.068897   0.003872  -0.000000
   61  H  5  S   -0.229526   0.349099  -0.000000  -0.000000   0.393327
   62  H  5  S    1.481758  -0.183204  -0.000000  -0.000000  -0.336494
   63  H  5  X    0.031118  -0.034990  -0.000000  -0.000000  -0.083602
   64  H  5  Y    0.019151  -0.047455  -0.000000  -0.000000  -0.036761
   65  H  5  Z   -0.000000   0.000000   0.012597   0.006310  -0.000000
   66  H  6  S    0.229526   0.349099  -0.000000  -0.000000  -0.393327
   67  H  6  S   -1.481758  -0.183204  -0.000000  -0.000000   0.336494
   68  H  6  X    0.031118   0.034990  -0.000000  -0.000000  -0.083602
   69  H  6  Y   -0.019151  -0.047455  -0.000000  -0.000000   0.036761
   70  H  6  Z   -0.000000   0.000000   0.012597   0.006310  -0.000000
   71  H  7  S    0.229526  -0.349099  -0.000000  -0.000000   0.393327
   72  H  7  S   -1.481758   0.183204  -0.000000  -0.000000  -0.336494
   73  H  7  X   -0.031118   0.034990  -0.000000  -0.000000  -0.083602
   74  H  7  Y    0.019151  -0.047455  -0.000000  -0.000000   0.036761
   75  H  7  Z   -0.000000   0.000000   0.012597  -0.006310  -0.000000
   76  H  8  S   -0.229526  -0.349099  -0.000000  -0.000000  -0.393327
   77  H  8  S    1.481758   0.183204  -0.000000  -0.000000   0.336494
   78  H  8  X   -0.031118  -0.034990  -0.000000  -0.000000  -0.083602
   79  H  8  Y   -0.019151  -0.047455  -0.000000  -0.000000  -0.036761
   80  H  8  Z   -0.000000   0.000000   0.012597  -0.006310  -0.000000

                     31         32         33         34         35
                    0.7850     0.8165     0.8266     0.8462     0.9030
                     B2G        B2U        AG         AU         B3U 
    1  C  1  S   -0.000000  -0.092289  -0.118005   0.000000   0.007648
    2  C  1  S   -0.000000  -0.146398  -0.251526   0.000000   0.031344
    3  C  1  S   -0.000000   0.821099  -0.490878   0.000000   0.785726
    4  C  1  X   -0.000000  -0.143160  -0.140062   0.000000  -0.432402
    5  C  1  Y   -0.000000  -0.425498  -0.278006   0.000000  -0.196536
    6  C  1  Z   -0.532502   0.000000  -0.000000  -0.544316   0.000000
    7  C  1  X   -0.000000   0.644483   0.519717   0.000000   1.669729
    8  C  1  Y   -0.000000   1.599367   0.584009   0.000000   0.918221
    9  C  1  Z    0.661040   0.000000  -0.000000   1.098698   0.000000
   10  C  1 XX   -0.000000  -0.080704  -0.049395   0.000000   0.167744
   11  C  1 YY   -0.000000   0.110197  -0.118835   0.000000  -0.110162
   12  C  1 ZZ   -0.000000  -0.029492   0.168230   0.000000  -0.057582
   13  C  1 XY   -0.000000  -0.099312   0.022846   0.000000  -0.082438
   14  C  1 XZ    0.048341   0.000000  -0.000000   0.068399   0.000000
   15  C  1 YZ   -0.056711   0.000000  -0.000000   0.030592   0.000000
   16  C  2  S   -0.000000  -0.092289  -0.118005   0.000000  -0.007648
   17  C  2  S   -0.000000  -0.146398  -0.251526   0.000000  -0.031344
   18  C  2  S   -0.000000   0.821099  -0.490878   0.000000  -0.785726
   19  C  2  X   -0.000000   0.143160   0.140062   0.000000  -0.432402
   20  C  2  Y   -0.000000  -0.425498  -0.278006   0.000000   0.196536
   21  C  2  Z    0.532502   0.000000  -0.000000   0.544316   0.000000
   22  C  2  X   -0.000000  -0.644483  -0.519717   0.000000   1.669729
   23  C  2  Y   -0.000000   1.599367   0.584009   0.000000  -0.918221
   24  C  2  Z   -0.661040   0.000000  -0.000000  -1.098698   0.000000
   25  C  2 XX   -0.000000  -0.080704  -0.049395   0.000000  -0.167744
   26  C  2 YY   -0.000000   0.110197  -0.118835   0.000000   0.110162
   27  C  2 ZZ   -0.000000  -0.029492   0.168230   0.000000   0.057582
   28  C  2 XY   -0.000000   0.099312  -0.022846   0.000000  -0.082438
   29  C  2 XZ    0.048341   0.000000  -0.000000   0.068399   0.000000
   30  C  2 YZ    0.056711   0.000000  -0.000000  -0.030592   0.000000
   31  C  3  S   -0.000000   0.092289  -0.118005   0.000000   0.007648
   32  C  3  S   -0.000000   0.146398  -0.251526   0.000000   0.031344
   33  C  3  S   -0.000000  -0.821099  -0.490878   0.000000   0.785726
   34  C  3  X   -0.000000   0.143160  -0.140062   0.000000  -0.432402
   35  C  3  Y   -0.000000  -0.425498   0.278006   0.000000   0.196536
   36  C  3  Z   -0.532502   0.000000  -0.000000   0.544316   0.000000
   37  C  3  X   -0.000000  -0.644483   0.519717   0.000000   1.669729
   38  C  3  Y   -0.000000   1.599367  -0.584009   0.000000  -0.918221
   39  C  3  Z    0.661040   0.000000  -0.000000  -1.098698   0.000000
   40  C  3 XX   -0.000000   0.080704  -0.049395   0.000000   0.167744
   41  C  3 YY   -0.000000  -0.110197  -0.118835   0.000000  -0.110162
   42  C  3 ZZ   -0.000000   0.029492   0.168230   0.000000  -0.057582
   43  C  3 XY   -0.000000  -0.099312  -0.022846   0.000000   0.082438
   44  C  3 XZ    0.048341   0.000000  -0.000000  -0.068399   0.000000
   45  C  3 YZ    0.056711   0.000000  -0.000000   0.030592   0.000000
   46  C  4  S   -0.000000   0.092289  -0.118005   0.000000  -0.007648
   47  C  4  S   -0.000000   0.146398  -0.251526   0.000000  -0.031344
   48  C  4  S   -0.000000  -0.821099  -0.490878   0.000000  -0.785726
   49  C  4  X   -0.000000  -0.143160   0.140062   0.000000  -0.432402
   50  C  4  Y   -0.000000  -0.425498   0.278006   0.000000  -0.196536
   51  C  4  Z    0.532502   0.000000  -0.000000  -0.544316   0.000000
   52  C  4  X   -0.000000   0.644483  -0.519717   0.000000   1.669729
   53  C  4  Y   -0.000000   1.599367  -0.584009   0.000000   0.918221
   54  C  4  Z   -0.661040   0.000000  -0.000000   1.098698   0.000000
   55  C  4 XX   -0.000000   0.080704  -0.049395   0.000000  -0.167744
   56  C  4 YY   -0.000000  -0.110197  -0.118835   0.000000   0.110162
   57  C  4 ZZ   -0.000000   0.029492   0.168230   0.000000   0.057582
   58  C  4 XY   -0.000000   0.099312   0.022846   0.000000   0.082438
   59  C  4 XZ    0.048341   0.000000  -0.000000  -0.068399   0.000000
   60  C  4 YZ   -0.056711   0.000000  -0.000000  -0.030592   0.000000
   61  H  5  S   -0.000000  -0.160499   0.299397   0.000000  -0.031872
   62  H  5  S   -0.000000   1.040121   0.415466   0.000000   1.133155
   63  H  5  X   -0.000000   0.058442   0.028608   0.000000   0.063298
   64  H  5  Y   -0.000000   0.078405   0.043490   0.000000   0.087837
   65  H  5  Z   -0.007777   0.000000  -0.000000   0.013481   0.000000
   66  H  6  S   -0.000000  -0.160499   0.299397   0.000000   0.031872
   67  H  6  S   -0.000000   1.040121   0.415466   0.000000  -1.133155
   68  H  6  X   -0.000000  -0.058442  -0.028608   0.000000   0.063298
   69  H  6  Y   -0.000000   0.078405   0.043490   0.000000  -0.087837
   70  H  6  Z    0.007777   0.000000  -0.000000  -0.013481   0.000000
   71  H  7  S   -0.000000   0.160499   0.299397   0.000000  -0.031872
   72  H  7  S   -0.000000  -1.040121   0.415466   0.000000   1.133155
   73  H  7  X   -0.000000  -0.058442   0.028608   0.000000   0.063298
   74  H  7  Y   -0.000000   0.078405  -0.043490   0.000000  -0.087837
   75  H  7  Z   -0.007777   0.000000  -0.000000  -0.013481   0.000000
   76  H  8  S   -0.000000   0.160499   0.299397   0.000000   0.031872
   77  H  8  S   -0.000000  -1.040121   0.415466   0.000000  -1.133155
   78  H  8  X   -0.000000   0.058442  -0.028608   0.000000   0.063298
   79  H  8  Y   -0.000000   0.078405  -0.043490   0.000000   0.087837
   80  H  8  Z    0.007777   0.000000  -0.000000   0.013481   0.000000

                     36         37         38         39         40
                    0.9213     0.9429     0.9630     1.0383     1.0464
                     B1G        AG         B1G        B2U        B1U 
    1  C  1  S   -0.030764  -0.290593   0.019916  -0.310208  -0.000000
    2  C  1  S   -0.043394  -0.686039   0.036796  -0.697423  -0.000000
    3  C  1  S    0.939770   1.412167   3.702146   1.868256  -0.000000
    4  C  1  X    0.163965   0.174313  -0.383629   0.244238  -0.000000
    5  C  1  Y   -0.498793   0.140312  -0.147782  -0.020772  -0.000000
    6  C  1  Z    0.000000   0.000000  -0.000000  -0.000000  -0.148980
    7  C  1  X   -0.532839  -0.524739   3.184166  -1.183935  -0.000000
    8  C  1  Y    2.451872  -0.486529   2.209871  -0.225902  -0.000000
    9  C  1  Z    0.000000   0.000000  -0.000000  -0.000000   0.054033
   10  C  1 XX   -0.168733  -0.017562   0.164102  -0.060406  -0.000000
   11  C  1 YY    0.184332  -0.019732  -0.007642   0.045215  -0.000000
   12  C  1 ZZ   -0.015599   0.037294  -0.156460   0.015191  -0.000000
   13  C  1 XY    0.024430   0.150249   0.068143  -0.013211  -0.000000
   14  C  1 XZ    0.000000   0.000000  -0.000000  -0.000000   0.071105
   15  C  1 YZ    0.000000   0.000000  -0.000000  -0.000000   0.341988
   16  C  2  S    0.030764  -0.290593  -0.019916  -0.310208  -0.000000
   17  C  2  S    0.043394  -0.686039  -0.036796  -0.697423  -0.000000
   18  C  2  S   -0.939770   1.412167  -3.702146   1.868256  -0.000000
   19  C  2  X    0.163965  -0.174313  -0.383629  -0.244238  -0.000000
   20  C  2  Y    0.498793   0.140312   0.147782  -0.020772  -0.000000
   21  C  2  Z    0.000000   0.000000  -0.000000  -0.000000  -0.148980
   22  C  2  X   -0.532839   0.524739   3.184166   1.183935  -0.000000
   23  C  2  Y   -2.451872  -0.486529  -2.209871  -0.225902  -0.000000
   24  C  2  Z    0.000000   0.000000  -0.000000  -0.000000   0.054033
   25  C  2 XX    0.168733  -0.017562  -0.164102  -0.060406  -0.000000
   26  C  2 YY   -0.184332  -0.019732   0.007642   0.045215  -0.000000
   27  C  2 ZZ    0.015599   0.037294   0.156460   0.015191  -0.000000
   28  C  2 XY    0.024430  -0.150249   0.068143   0.013211  -0.000000
   29  C  2 XZ    0.000000   0.000000  -0.000000  -0.000000  -0.071105
   30  C  2 YZ    0.000000   0.000000  -0.000000  -0.000000   0.341988
   31  C  3  S    0.030764  -0.290593  -0.019916   0.310208  -0.000000
   32  C  3  S    0.043394  -0.686039  -0.036796   0.697423  -0.000000
   33  C  3  S   -0.939770   1.412167  -3.702146  -1.868256  -0.000000
   34  C  3  X   -0.163965   0.174313   0.383629  -0.244238  -0.000000
   35  C  3  Y   -0.498793  -0.140312  -0.147782  -0.020772  -0.000000
   36  C  3  Z    0.000000   0.000000  -0.000000  -0.000000  -0.148980
   37  C  3  X    0.532839  -0.524739  -3.184166   1.183935  -0.000000
   38  C  3  Y    2.451872   0.486529   2.209871  -0.225902  -0.000000
   39  C  3  Z    0.000000   0.000000  -0.000000  -0.000000   0.054033
   40  C  3 XX    0.168733  -0.017562  -0.164102   0.060406  -0.000000
   41  C  3 YY   -0.184332  -0.019732   0.007642  -0.045215  -0.000000
   42  C  3 ZZ    0.015599   0.037294   0.156460  -0.015191  -0.000000
   43  C  3 XY    0.024430  -0.150249   0.068143  -0.013211  -0.000000
   44  C  3 XZ    0.000000   0.000000  -0.000000  -0.000000   0.071105
   45  C  3 YZ    0.000000   0.000000  -0.000000  -0.000000  -0.341988
   46  C  4  S   -0.030764  -0.290593   0.019916   0.310208  -0.000000
   47  C  4  S   -0.043394  -0.686039   0.036796   0.697423  -0.000000
   48  C  4  S    0.939770   1.412167   3.702146  -1.868256  -0.000000
   49  C  4  X   -0.163965  -0.174313   0.383629   0.244238  -0.000000
   50  C  4  Y    0.498793  -0.140312   0.147782  -0.020772  -0.000000
   51  C  4  Z    0.000000   0.000000  -0.000000  -0.000000  -0.148980
   52  C  4  X    0.532839   0.524739  -3.184166  -1.183935  -0.000000
   53  C  4  Y   -2.451872   0.486529  -2.209871  -0.225902  -0.000000
   54  C  4  Z    0.000000   0.000000  -0.000000  -0.000000   0.054033
   55  C  4 XX   -0.168733  -0.017562   0.164102   0.060406  -0.000000
   56  C  4 YY    0.184332  -0.019732  -0.007642  -0.045215  -0.000000
   57  C  4 ZZ   -0.015599   0.037294  -0.156460  -0.015191  -0.000000
   58  C  4 XY    0.024430   0.150249   0.068143   0.013211  -0.000000
   59  C  4 XZ    0.000000   0.000000  -0.000000  -0.000000  -0.071105
   60  C  4 YZ    0.000000   0.000000  -0.000000  -0.000000  -0.341988
   61  H  5  S   -0.016742   0.003659   0.359305  -0.334151  -0.000000
   62  H  5  S    0.607762  -0.977794   1.419965  -0.839295  -0.000000
   63  H  5  X    0.035513  -0.092596  -0.004229  -0.095708  -0.000000
   64  H  5  Y    0.029583  -0.099828   0.013109  -0.024178  -0.000000
   65  H  5  Z    0.000000   0.000000  -0.000000  -0.000000  -0.127787
   66  H  6  S    0.016742   0.003659  -0.359305  -0.334151  -0.000000
   67  H  6  S   -0.607762  -0.977794  -1.419965  -0.839295  -0.000000
   68  H  6  X    0.035513   0.092596  -0.004229   0.095708  -0.000000
   69  H  6  Y   -0.029583  -0.099828  -0.013109  -0.024178  -0.000000
   70  H  6  Z    0.000000   0.000000  -0.000000  -0.000000  -0.127787
   71  H  7  S    0.016742   0.003659  -0.359305   0.334151  -0.000000
   72  H  7  S   -0.607762  -0.977794  -1.419965   0.839295  -0.000000
   73  H  7  X   -0.035513  -0.092596   0.004229   0.095708  -0.000000
   74  H  7  Y    0.029583   0.099828   0.013109  -0.024178  -0.000000
   75  H  7  Z    0.000000   0.000000  -0.000000  -0.000000  -0.127787
   76  H  8  S   -0.016742   0.003659   0.359305   0.334151  -0.000000
   77  H  8  S    0.607762  -0.977794   1.419965   0.839295  -0.000000
   78  H  8  X   -0.035513   0.092596   0.004229  -0.095708  -0.000000
   79  H  8  Y   -0.029583   0.099828  -0.013109  -0.024178  -0.000000
   80  H  8  Z    0.000000   0.000000  -0.000000  -0.000000  -0.127787

                     41         42         43         44         45
                    1.1129     1.1915     1.2255     1.2390     1.2992
                     B3U        B1U        B2U        B1G        B2G 
    1  C  1  S   -0.373745   0.000000  -0.279976   0.107456   0.000000
    2  C  1  S   -0.819718   0.000000  -0.563980   0.354947   0.000000
    3  C  1  S    2.900725   0.000000   1.224085   2.138858   0.000000
    4  C  1  X   -0.080972   0.000000  -0.145796   0.329377   0.000000
    5  C  1  Y    0.141027   0.000000  -0.000724   0.188741   0.000000
    6  C  1  Z   -0.000000  -0.138867  -0.000000   0.000000  -0.065303
    7  C  1  X    0.653740   0.000000   1.224120   1.201931   0.000000
    8  C  1  Y   -0.822247   0.000000   1.461618   1.941501   0.000000
    9  C  1  Z   -0.000000   0.062348  -0.000000   0.000000   0.114693
   10  C  1 XX    0.170994   0.000000  -0.146747  -0.080646   0.000000
   11  C  1 YY   -0.139459   0.000000   0.038113   0.090441   0.000000
   12  C  1 ZZ   -0.031535   0.000000   0.108635  -0.009794   0.000000
   13  C  1 XY   -0.032560   0.000000   0.154017   0.131806   0.000000
   14  C  1 XZ   -0.000000   0.349310  -0.000000   0.000000   0.010169
   15  C  1 YZ   -0.000000  -0.161195  -0.000000   0.000000   0.351536
   16  C  2  S    0.373745   0.000000  -0.279976  -0.107456   0.000000
   17  C  2  S    0.819718   0.000000  -0.563980  -0.354947   0.000000
   18  C  2  S   -2.900725   0.000000   1.224085  -2.138858   0.000000
   19  C  2  X   -0.080972   0.000000   0.145796   0.329377   0.000000
   20  C  2  Y   -0.141027   0.000000  -0.000724  -0.188741   0.000000
   21  C  2  Z   -0.000000  -0.138867  -0.000000   0.000000   0.065303
   22  C  2  X    0.653740   0.000000  -1.224120   1.201931   0.000000
   23  C  2  Y    0.822247   0.000000   1.461618  -1.941501   0.000000
   24  C  2  Z   -0.000000   0.062348  -0.000000   0.000000  -0.114693
   25  C  2 XX   -0.170994   0.000000  -0.146747   0.080646   0.000000
   26  C  2 YY    0.139459   0.000000   0.038113  -0.090441   0.000000
   27  C  2 ZZ    0.031535   0.000000   0.108635   0.009794   0.000000
   28  C  2 XY   -0.032560   0.000000  -0.154017   0.131806   0.000000
   29  C  2 XZ   -0.000000  -0.349310  -0.000000   0.000000   0.010169
   30  C  2 YZ   -0.000000  -0.161195  -0.000000   0.000000  -0.351536
   31  C  3  S   -0.373745   0.000000   0.279976  -0.107456   0.000000
   32  C  3  S   -0.819718   0.000000   0.563980  -0.354947   0.000000
   33  C  3  S    2.900725   0.000000  -1.224085  -2.138858   0.000000
   34  C  3  X   -0.080972   0.000000   0.145796  -0.329377   0.000000
   35  C  3  Y   -0.141027   0.000000  -0.000724   0.188741   0.000000
   36  C  3  Z   -0.000000  -0.138867  -0.000000   0.000000  -0.065303
   37  C  3  X    0.653740   0.000000  -1.224120  -1.201931   0.000000
   38  C  3  Y    0.822247   0.000000   1.461618   1.941501   0.000000
   39  C  3  Z   -0.000000   0.062348  -0.000000   0.000000   0.114693
   40  C  3 XX    0.170994   0.000000   0.146747   0.080646   0.000000
   41  C  3 YY   -0.139459   0.000000  -0.038113  -0.090441   0.000000
   42  C  3 ZZ   -0.031535   0.000000  -0.108635   0.009794   0.000000
   43  C  3 XY    0.032560   0.000000   0.154017   0.131806   0.000000
   44  C  3 XZ   -0.000000   0.349310  -0.000000   0.000000   0.010169
   45  C  3 YZ   -0.000000   0.161195  -0.000000   0.000000  -0.351536
   46  C  4  S    0.373745   0.000000   0.279976   0.107456   0.000000
   47  C  4  S    0.819718   0.000000   0.563980   0.354947   0.000000
   48  C  4  S   -2.900725   0.000000  -1.224085   2.138858   0.000000
   49  C  4  X   -0.080972   0.000000  -0.145796  -0.329377   0.000000
   50  C  4  Y    0.141027   0.000000  -0.000724  -0.188741   0.000000
   51  C  4  Z   -0.000000  -0.138867  -0.000000   0.000000   0.065303
   52  C  4  X    0.653740   0.000000   1.224120  -1.201931   0.000000
   53  C  4  Y   -0.822247   0.000000   1.461618  -1.941501   0.000000
   54  C  4  Z   -0.000000   0.062348  -0.000000   0.000000  -0.114693
   55  C  4 XX   -0.170994   0.000000   0.146747  -0.080646   0.000000
   56  C  4 YY    0.139459   0.000000  -0.038113   0.090441   0.000000
   57  C  4 ZZ    0.031535   0.000000  -0.108635  -0.009794   0.000000
   58  C  4 XY    0.032560   0.000000  -0.154017   0.131806   0.000000
   59  C  4 XZ   -0.000000  -0.349310  -0.000000   0.000000   0.010169
   60  C  4 YZ   -0.000000   0.161195  -0.000000   0.000000   0.351536
   61  H  5  S   -0.314549   0.000000   0.446089   0.556795   0.000000
   62  H  5  S   -0.475385   0.000000   0.513033   0.548578   0.000000
   63  H  5  X   -0.027310   0.000000  -0.027336  -0.109263   0.000000
   64  H  5  Y   -0.092155   0.000000  -0.121158  -0.107547   0.000000
   65  H  5  Z   -0.000000  -0.105360  -0.000000   0.000000  -0.239400
   66  H  6  S    0.314549   0.000000   0.446089  -0.556795   0.000000
   67  H  6  S    0.475385   0.000000   0.513033  -0.548578   0.000000
   68  H  6  X   -0.027310   0.000000   0.027336  -0.109263   0.000000
   69  H  6  Y    0.092155   0.000000  -0.121158   0.107547   0.000000
   70  H  6  Z   -0.000000  -0.105360  -0.000000   0.000000   0.239400
   71  H  7  S   -0.314549   0.000000  -0.446089  -0.556795   0.000000
   72  H  7  S   -0.475385   0.000000  -0.513033  -0.548578   0.000000
   73  H  7  X   -0.027310   0.000000   0.027336   0.109263   0.000000
   74  H  7  Y    0.092155   0.000000  -0.121158  -0.107547   0.000000
   75  H  7  Z   -0.000000  -0.105360  -0.000000   0.000000  -0.239400
   76  H  8  S    0.314549   0.000000  -0.446089   0.556795   0.000000
   77  H  8  S    0.475385   0.000000  -0.513033   0.548578   0.000000
   78  H  8  X   -0.027310   0.000000  -0.027336   0.109263   0.000000
   79  H  8  Y   -0.092155   0.000000  -0.121158   0.107547   0.000000
   80  H  8  Z   -0.000000  -0.105360  -0.000000   0.000000   0.239400

                     46         47         48         49         50
                    1.3013     1.3130     1.4930     1.5714     1.6287
                     B3U        B3G        AG         AG         B3U 
    1  C  1  S   -0.211828  -0.000000  -0.064102  -0.018275  -0.122977
    2  C  1  S   -0.415706  -0.000000  -0.165156  -0.051254  -0.277721
    3  C  1  S    1.805217  -0.000000  -0.251535   0.055645   0.451520
    4  C  1  X    0.121249  -0.000000   0.049307   0.081922   0.058727
    5  C  1  Y   -0.234293  -0.000000  -0.039883  -0.226059  -0.272806
    6  C  1  Z   -0.000000  -0.146124  -0.000000  -0.000000   0.000000
    7  C  1  X    1.797440  -0.000000   0.240126  -0.231603   0.719062
    8  C  1  Y    1.497066  -0.000000   0.347176   0.193215   1.055889
    9  C  1  Z   -0.000000   0.164572  -0.000000  -0.000000   0.000000
   10  C  1 XX    0.073244  -0.000000  -0.052129  -0.153733   0.076514
   11  C  1 YY   -0.171482  -0.000000   0.076643   0.241831   0.147966
   12  C  1 ZZ    0.098238  -0.000000  -0.024514  -0.088098  -0.224480
   13  C  1 XY    0.227013  -0.000000  -0.353021   0.130142  -0.140555
   14  C  1 XZ   -0.000000   0.322902  -0.000000  -0.000000   0.000000
   15  C  1 YZ   -0.000000   0.018552  -0.000000  -0.000000   0.000000
   16  C  2  S    0.211828  -0.000000  -0.064102  -0.018275   0.122977
   17  C  2  S    0.415706  -0.000000  -0.165156  -0.051254   0.277721
   18  C  2  S   -1.805217  -0.000000  -0.251535   0.055645  -0.451520
   19  C  2  X    0.121249  -0.000000  -0.049307  -0.081922   0.058727
   20  C  2  Y    0.234293  -0.000000  -0.039883  -0.226059   0.272806
   21  C  2  Z   -0.000000  -0.146124  -0.000000  -0.000000   0.000000
   22  C  2  X    1.797440  -0.000000  -0.240126   0.231603   0.719062
   23  C  2  Y   -1.497066  -0.000000   0.347176   0.193215  -1.055889
   24  C  2  Z   -0.000000   0.164572  -0.000000  -0.000000   0.000000
   25  C  2 XX   -0.073244  -0.000000  -0.052129  -0.153733  -0.076514
   26  C  2 YY    0.171482  -0.000000   0.076643   0.241831  -0.147966
   27  C  2 ZZ   -0.098238  -0.000000  -0.024514  -0.088098   0.224480
   28  C  2 XY    0.227013  -0.000000   0.353021  -0.130142  -0.140555
   29  C  2 XZ   -0.000000  -0.322902  -0.000000  -0.000000   0.000000
   30  C  2 YZ   -0.000000   0.018552  -0.000000  -0.000000   0.000000
   31  C  3  S   -0.211828  -0.000000  -0.064102  -0.018275  -0.122977
   32  C  3  S   -0.415706  -0.000000  -0.165156  -0.051254  -0.277721
   33  C  3  S    1.805217  -0.000000  -0.251535   0.055645   0.451520
   34  C  3  X    0.121249  -0.000000   0.049307   0.081922   0.058727
   35  C  3  Y    0.234293  -0.000000   0.039883   0.226059   0.272806
   36  C  3  Z   -0.000000   0.146124  -0.000000  -0.000000   0.000000
   37  C  3  X    1.797440  -0.000000   0.240126  -0.231603   0.719062
   38  C  3  Y   -1.497066  -0.000000  -0.347176  -0.193215  -1.055889
   39  C  3  Z   -0.000000  -0.164572  -0.000000  -0.000000   0.000000
   40  C  3 XX    0.073244  -0.000000  -0.052129  -0.153733   0.076514
   41  C  3 YY   -0.171482  -0.000000   0.076643   0.241831   0.147966
   42  C  3 ZZ    0.098238  -0.000000  -0.024514  -0.088098  -0.224480
   43  C  3 XY   -0.227013  -0.000000   0.353021  -0.130142   0.140555
   44  C  3 XZ   -0.000000  -0.322902  -0.000000  -0.000000   0.000000
   45  C  3 YZ   -0.000000   0.018552  -0.000000  -0.000000   0.000000
   46  C  4  S    0.211828  -0.000000  -0.064102  -0.018275   0.122977
   47  C  4  S    0.415706  -0.000000  -0.165156  -0.051254   0.277721
   48  C  4  S   -1.805217  -0.000000  -0.251535   0.055645  -0.451520
   49  C  4  X    0.121249  -0.000000  -0.049307  -0.081922   0.058727
   50  C  4  Y   -0.234293  -0.000000   0.039883   0.226059  -0.272806
   51  C  4  Z   -0.000000   0.146124  -0.000000  -0.000000   0.000000
   52  C  4  X    1.797440  -0.000000  -0.240126   0.231603   0.719062
   53  C  4  Y    1.497066  -0.000000  -0.347176  -0.193215   1.055889
   54  C  4  Z   -0.000000  -0.164572  -0.000000  -0.000000   0.000000
   55  C  4 XX   -0.073244  -0.000000  -0.052129  -0.153733  -0.076514
   56  C  4 YY    0.171482  -0.000000   0.076643   0.241831  -0.147966
   57  C  4 ZZ   -0.098238  -0.000000  -0.024514  -0.088098   0.224480
   58  C  4 XY   -0.227013  -0.000000  -0.353021   0.130142   0.140555
   59  C  4 XZ   -0.000000   0.322902  -0.000000  -0.000000   0.000000
   60  C  4 YZ   -0.000000   0.018552  -0.000000  -0.000000   0.000000
   61  H  5  S    0.453247  -0.000000   0.494739  -0.180495   0.312776
   62  H  5  S    0.672244  -0.000000   0.059059   0.061099   0.406682
   63  H  5  X   -0.146270  -0.000000  -0.004508   0.279438   0.218427
   64  H  5  Y   -0.032719  -0.000000  -0.178365  -0.186287  -0.287994
   65  H  5  Z   -0.000000  -0.246094  -0.000000  -0.000000   0.000000
   66  H  6  S   -0.453247  -0.000000   0.494739  -0.180495  -0.312776
   67  H  6  S   -0.672244  -0.000000   0.059059   0.061099  -0.406682
   68  H  6  X   -0.146270  -0.000000   0.004508  -0.279438   0.218427
   69  H  6  Y    0.032719  -0.000000  -0.178365  -0.186287   0.287994
[...]
   39  C  3  Z   -0.000000   0.000000   0.000000   0.000000  -0.000000
   40  C  3 XX    0.245424  -0.110711   0.086249  -0.529153  -0.177462
   41  C  3 YY   -0.113894  -0.275717  -0.114700   0.001765  -0.160978
   42  C  3 ZZ   -0.131530   0.386428   0.028451   0.527388   0.338440
   43  C  3 XY    0.199000   0.326714   0.140510   0.397291   0.666662
   44  C  3 XZ   -0.000000   0.000000   0.000000   0.000000  -0.000000
   45  C  3 YZ    0.000000  -0.000000   0.000000  -0.000000  -0.000000
   46  C  4  S    0.286788   0.205531  -0.026652  -0.241828   0.044595
   47  C  4  S    0.552603   0.320237  -0.035827  -0.377898   0.153449
   48  C  4  S   -2.736371  -2.450288   0.475605   4.335778  -0.278894
   49  C  4  X    0.263367  -0.238300  -0.039567  -0.021328   0.084169
   50  C  4  Y   -0.042279  -0.199976   0.115698   0.266823   0.077950
   51  C  4  Z   -0.000000   0.000000   0.000000  -0.000000   0.000000
   52  C  4  X    2.947506  -0.739396   1.789659  -1.597617   1.788375
   53  C  4  Y    1.210523   0.213911  -3.148871   0.345107   1.583491
   54  C  4  Z    0.000000  -0.000000  -0.000000  -0.000000  -0.000000
   55  C  4 XX   -0.245424  -0.110711  -0.086249   0.529153   0.177462
   56  C  4 YY    0.113894  -0.275717   0.114700  -0.001765   0.160978
   57  C  4 ZZ    0.131530   0.386428  -0.028451  -0.527388  -0.338440
   58  C  4 XY    0.199000  -0.326714   0.140510   0.397291   0.666662
   59  C  4 XZ   -0.000000   0.000000   0.000000   0.000000  -0.000000
   60  C  4 YZ   -0.000000   0.000000  -0.000000   0.000000   0.000000
   61  H  5  S    0.291414  -0.532266   0.005597   0.582175  -0.774327
   62  H  5  S    1.657364  -1.111795   0.370817   0.519432  -1.874223
   63  H  5  X    0.222499  -0.418796   0.296345   0.508786  -0.502048
   64  H  5  Y    0.396599  -0.564182  -0.404049   0.389870  -0.540572
   65  H  5  Z    0.000000  -0.000000   0.000000  -0.000000  -0.000000
   66  H  6  S   -0.291414  -0.532266  -0.005597  -0.582175   0.774327
   67  H  6  S   -1.657364  -1.111795  -0.370817  -0.519432   1.874223
   68  H  6  X    0.222499   0.418796   0.296345   0.508786  -0.502048
   69  H  6  Y   -0.396599  -0.564182   0.404049  -0.389870   0.540572
   70  H  6  Z   -0.000000   0.000000  -0.000000   0.000000   0.000000
   71  H  7  S    0.291414   0.532266  -0.005597   0.582175   0.774327
   72  H  7  S    1.657364   1.111795  -0.370817   0.519432   1.874223
   73  H  7  X    0.222499   0.418796  -0.296345   0.508786   0.502048
   74  H  7  Y   -0.396599  -0.564182  -0.404049  -0.389870  -0.540572
   75  H  7  Z   -0.000000   0.000000  -0.000000   0.000000   0.000000
   76  H  8  S   -0.291414   0.532266   0.005597  -0.582175  -0.774327
   77  H  8  S   -1.657364   1.111795   0.370817  -0.519432  -1.874223
   78  H  8  X    0.222499  -0.418796  -0.296345   0.508786   0.502048
   79  H  8  Y    0.396599  -0.564182   0.404049   0.389870   0.540572
   80  H  8  Z    0.000000  -0.000000   0.000000  -0.000000  -0.000000

                     76
                    0.0000
                     B1G 
    1  C  1  S    0.658062
    2  C  1  S    1.064796
    3  C  1  S  -17.760241
    4  C  1  X   -0.031813
    5  C  1  Y    0.058230
    6  C  1  Z   -0.000000
    7  C  1  X   -8.028936
    8  C  1  Y   -6.840524
    9  C  1  Z    0.000000
   10  C  1 XX   -0.326052
   11  C  1 YY   -0.373275
   12  C  1 ZZ    0.699328
   13  C  1 XY   -0.493941
   14  C  1 XZ    0.000000
   15  C  1 YZ   -0.000000
   16  C  2  S   -0.658062
   17  C  2  S   -1.064796
   18  C  2  S   17.760241
   19  C  2  X   -0.031813
   20  C  2  Y   -0.058230
   21  C  2  Z    0.000000
   22  C  2  X   -8.028936
   23  C  2  Y    6.840524
   24  C  2  Z   -0.000000
   25  C  2 XX    0.326052
   26  C  2 YY    0.373275
   27  C  2 ZZ   -0.699328
   28  C  2 XY   -0.493941
   29  C  2 XZ    0.000000
   30  C  2 YZ    0.000000
   31  C  3  S   -0.658062
   32  C  3  S   -1.064796
   33  C  3  S   17.760241
   34  C  3  X    0.031813
   35  C  3  Y    0.058230
   36  C  3  Z    0.000000
   37  C  3  X    8.028936
   38  C  3  Y   -6.840524
   39  C  3  Z   -0.000000
   40  C  3 XX    0.326052
   41  C  3 YY    0.373275
   42  C  3 ZZ   -0.699328
   43  C  3 XY   -0.493941
   44  C  3 XZ   -0.000000
   45  C  3 YZ   -0.000000
   46  C  4  S    0.658062
   47  C  4  S    1.064796
   48  C  4  S  -17.760241
   49  C  4  X    0.031813
   50  C  4  Y   -0.058230
   51  C  4  Z   -0.000000
   52  C  4  X    8.028936
   53  C  4  Y    6.840524
   54  C  4  Z    0.000000
   55  C  4 XX   -0.326052
   56  C  4 YY   -0.373275
   57  C  4 ZZ    0.699328
   58  C  4 XY   -0.493941
   59  C  4 XZ   -0.000000
   60  C  4 YZ    0.000000
   61  H  5  S    0.170364
   62  H  5  S   -2.694698
   63  H  5  X    0.463343
   64  H  5  Y    0.373903
   65  H  5  Z   -0.000000
   66  H  6  S   -0.170364
   67  H  6  S    2.694698
   68  H  6  X    0.463343
   69  H  6  Y   -0.373903
   70  H  6  Z    0.000000
   71  H  7  S   -0.170364
   72  H  7  S    2.694698
   73  H  7  X   -0.463343
   74  H  7  Y    0.373903
   75  H  7  Z    0.000000
   76  H  8  S    0.170364
   77  H  8  S   -2.694698
   78  H  8  X   -0.463343
   79  H  8  Y   -0.373903
   80  H  8  Z   -0.000000
 ... END OF RIGHT EOM NATURAL ORBITALS ...
 ..... DONE WITH EOM-CCSD .....
 STEP CPU TIME =    10.89 TOTAL CPU TIME =         27.6 (      0.5 MIN)
 TOTAL WALL CLOCK TIME=         27.8 SECONDS, CPU UTILIZATION IS    99.50%

 EOM-CCSD HAS FINISHED, NOW ENTERING THE MMCC23 PROGRAM
 TO COMPUTE CR-EOMCCSD(T) AND/OR CR-CC(2,3) TRIPLES CORRECTIONS

 ------------------     -------------------
 CR-CC(2,3) PROGRAM     M. WLOCH, P.PIECUCH
 ------------------     -------------------

 A TOTAL OF  1 STATES WILL BE TRIPLES CORRECTED

 BEGINNING TRIPLES CORRECTION FOR STATE  0
 MEMORY REQUIRED FOR   XINTQUA=     5836928
 MEMORY REQUIRED FOR  XINTRIPL=     5775548
 MEMORY REQUIRED FOR   XINTRIH=     3577648
 MEMORY REQUIRED FOR   DEN12CR=      770040 MTRIP= 1
 MEMORY REQUIRED FOR XT3WT2NNN=    10073784 MTRIP= 1
 LAMBDA CORRECTION FOR ROOT NO.                    0
 THE LARGEST L1 AND L2 AMPLITUDES FOR THIS ROOT ARE
 L2=  -0.1226653849 FOR I,J -> A,B =   10   10   11   11

 GROUND STATE CCSD TOTAL ENERGY=                               -154.2173306615

 MAIN RESULTS: CR-CC(2,3) = CR-CC(2,3),D = CR-CCSD(T)_L CALCULATIONS
 [SEE P. PIECUCH AND M. WLOCH, J. CHEM. PHYS. 123, 224105 (2005);
 P. PIECUCH, M. WLOCH, J.R. GOUR, AND A. KINAL, CHEM. PHYS. LETT.
 418, 463 (2005)]

 GROUND STATE CR-CC(2,3),A CORRECTION -0.022063, TOTAL E=     -154.2393931633
 GROUND STATE CR-CC(2,3),B CORRECTION -0.020803, TOTAL E=     -154.2381334611
 GROUND STATE CR-CC(2,3),C CORRECTION -0.026018, TOTAL E=     -154.2433481962
 GROUND STATE CR-CC(2,3),D CORRECTION -0.025979, TOTAL E=     -154.2433098214

 CR-CC(2,3),A ENERGY IS IDENTICAL TO THE CCSD(2)_T ENERGY.
 CR-CC(2,3),D ENERGY IS IDENTICAL TO COMPLETE CR-CC(2,3) ENERGY (CR-CCSD(T)_L)

 ADDITIONAL RESULTS: GROUND-STATE CR-EOMCCSD(T) CALCULATIONS
 [SEE K. KOWALSKI AND P. PIECUCH, J. CHEM. PHYS. 120, 1715 (2004)]

 GROUND STATE CR-CCSD(T)IA  CORRECTION -0.016244, TOTAL E=     -154.2335745324
 GROUND STATE CR-CCSD(T)IB  CORRECTION -0.015272, TOTAL E=     -154.2326028043
 GROUND STATE CR-CCSD(T)IC  CORRECTION -0.019288, TOTAL E=     -154.2366187634
 GROUND STATE CR-CCSD(T)ID  CORRECTION -0.019258, TOTAL E=     -154.2365888191
 GROUND STATE CR-CCSD(T)IIA CORRECTION -0.017021, TOTAL E=     -154.2343512941
 GROUND STATE CR-CCSD(T)IIB CORRECTION -0.016048, TOTAL E=     -154.2333786032
 GROUND STATE CR-CCSD(T)IIC CORRECTION -0.020068, TOTAL E=     -154.2373985395
 GROUND STATE CR-CCSD(T)IID CORRECTION -0.020038, TOTAL E=     -154.2373685653

              SUMMARY OF CR-CC(2,3) OR CR-CCSD(T)_L CALCULATIONS

 THE MOST ACCURATE ENERGETICS IS PROVIDED BY CR-CC(2,3) = CR-CC(2,3),D

 CCSD                       ENERGY:     -154.2173306615   CORR.E=  -0.5661595709
 CR-CC(2,3),A OR CCSD(2)_T  ENERGY:     -154.2393931633   CORR.E=  -0.5882220727
 CR-CC(2,3) OR CR-CCSD(T)_L ENERGY:     -154.2433098214   CORR.E=  -0.5921387308
 CPU TIME FOR TRIPLES CORRECTION FOR THIS STATE=      14.5

 .... DONE WITH MMCC(2,3) TRIPLES CORRECTIONS ....
 STEP CPU TIME =    14.46 TOTAL CPU TIME =         42.1 (      0.7 MIN)
 TOTAL WALL CLOCK TIME=         42.2 SECONDS, CPU UTILIZATION IS    99.60%

     --------------------------------------
     CCSD PROPERTIES...FOR THE GROUND STATE
      USING THE EXPECTATION VALUE DENSITY
     --------------------------------------

          ---------------------------------------
          MULLIKEN AND LOWDIN POPULATION ANALYSES
          ---------------------------------------

               ----- POPULATIONS IN EACH AO -----
                             MULLIKEN      LOWDIN
              1  C  1  S      2.00390     1.87783
              2  C  1  S      0.67427     0.49019
              3  C  1  S      0.52624     0.29108
              4  C  1  X      0.73448     0.65035
              5  C  1  Y      0.66136     0.58048
              6  C  1  Z      0.57135     0.52367
              7  C  1  X      0.16234     0.33495
              8  C  1  Y      0.20038     0.33948
              9  C  1  Z      0.40051     0.41512
             10  C  1 XX      0.00824     0.19434
             11  C  1 YY      0.02695     0.17164
             12  C  1 ZZ      0.02653     0.09735
             13  C  1 XY      0.01515     0.06980
             14  C  1 XZ      0.01123     0.02583
             15  C  1 YZ      0.00000     0.02061
             16  C  2  S      2.00390     1.87783
             17  C  2  S      0.67427     0.49019
             18  C  2  S      0.52624     0.29108
             19  C  2  X      0.73448     0.65035
             20  C  2  Y      0.66136     0.58048
             21  C  2  Z      0.57135     0.52367
             22  C  2  X      0.16234     0.33495
             23  C  2  Y      0.20038     0.33948
             24  C  2  Z      0.40051     0.41512
             25  C  2 XX      0.00824     0.19434
             26  C  2 YY      0.02695     0.17164
             27  C  2 ZZ      0.02653     0.09735
             28  C  2 XY      0.01515     0.06980
             29  C  2 XZ      0.01123     0.02583
             30  C  2 YZ      0.00000     0.02061
             31  C  3  S      2.00390     1.87783
             32  C  3  S      0.67427     0.49019
             33  C  3  S      0.52624     0.29108
             34  C  3  X      0.73448     0.65035
             35  C  3  Y      0.66136     0.58048
             36  C  3  Z      0.57135     0.52367
             37  C  3  X      0.16234     0.33495
             38  C  3  Y      0.20038     0.33948
             39  C  3  Z      0.40051     0.41512
             40  C  3 XX      0.00824     0.19434
             41  C  3 YY      0.02695     0.17164
             42  C  3 ZZ      0.02653     0.09735
             43  C  3 XY      0.01515     0.06980
             44  C  3 XZ      0.01123     0.02583
             45  C  3 YZ      0.00000     0.02061
             46  C  4  S      2.00390     1.87783
             47  C  4  S      0.67427     0.49019
             48  C  4  S      0.52624     0.29108
             49  C  4  X      0.73448     0.65035
             50  C  4  Y      0.66136     0.58048
             51  C  4  Z      0.57135     0.52367
             52  C  4  X      0.16234     0.33495
             53  C  4  Y      0.20038     0.33948
             54  C  4  Z      0.40051     0.41512
             55  C  4 XX      0.00824     0.19434
             56  C  4 YY      0.02695     0.17164
             57  C  4 ZZ      0.02653     0.09735
             58  C  4 XY      0.01515     0.06980
             59  C  4 XZ      0.01123     0.02583
             60  C  4 YZ      0.00000     0.02061
             61  H  5  S      0.73581     0.57484
             62  H  5  S      0.20715     0.26219
             63  H  5  X      0.01306     0.02831
             64  H  5  Y      0.01320     0.03108
             65  H  5  Z      0.00787     0.02087
             66  H  6  S      0.73581     0.57484
             67  H  6  S      0.20715     0.26219
             68  H  6  X      0.01306     0.02831
             69  H  6  Y      0.01320     0.03108
             70  H  6  Z      0.00787     0.02087
             71  H  7  S      0.73581     0.57484
             72  H  7  S      0.20715     0.26219
             73  H  7  X      0.01306     0.02831
             74  H  7  Y      0.01320     0.03108
             75  H  7  Z      0.00787     0.02087
             76  H  8  S      0.73581     0.57484
             77  H  8  S      0.20715     0.26219
             78  H  8  X      0.01306     0.02831
             79  H  8  Y      0.01320     0.03108
             80  H  8  Z      0.00787     0.02087

          ----- MULLIKEN ATOMIC OVERLAP POPULATIONS -----
          (OFF-DIAGONAL ELEMENTS NEED TO BE MULTIPLIED BY 2)

             1           2           3           4           5

    1    5.1076376
    2    0.5002948   5.1076376
    3    0.2139370  -0.1279890   5.1076376
    4   -0.1279890   0.2139370   0.5002948   5.1076376
    5    0.3917161  -0.0370500  -0.0365353   0.0108979   0.6510998
    6   -0.0370500   0.3917161   0.0108979  -0.0365353  -0.0024106
    7   -0.0365353   0.0108979   0.3917161  -0.0370500  -0.0001575
    8    0.0108979  -0.0365353  -0.0370500   0.3917161  -0.0004696

             6           7           8

    6    0.6510998
    7   -0.0004696   0.6510998
    8   -0.0001575  -0.0024106   0.6510998

          TOTAL MULLIKEN AND LOWDIN ATOMIC POPULATIONS
       ATOM         MULL.POP.    CHARGE          LOW.POP.     CHARGE
    1 C             6.022909   -0.022909         6.082707   -0.082707
    2 C             6.022909   -0.022909         6.082707   -0.082707
    3 C             6.022909   -0.022909         6.082707   -0.082707
    4 C             6.022909   -0.022909         6.082707   -0.082707
    5 H             0.977091    0.022909         0.917293    0.082707
    6 H             0.977091    0.022909         0.917293    0.082707
    7 H             0.977091    0.022909         0.917293    0.082707
    8 H             0.977091    0.022909         0.917293    0.082707

          MULLIKEN SPHERICAL HARMONIC POPULATIONS
       ATOM           S       P       D      F      G      H      I    TOTAL
    1 C             3.20    2.73    0.09   0.00   0.00   0.00   0.00    6.02
    2 C             3.20    2.73    0.09   0.00   0.00   0.00   0.00    6.02
    3 C             3.20    2.73    0.09   0.00   0.00   0.00   0.00    6.02
    4 C             3.20    2.73    0.09   0.00   0.00   0.00   0.00    6.02
    5 H             0.94    0.03    0.00   0.00   0.00   0.00   0.00    0.98
    6 H             0.94    0.03    0.00   0.00   0.00   0.00   0.00    0.98
    7 H             0.94    0.03    0.00   0.00   0.00   0.00   0.00    0.98
    8 H             0.94    0.03    0.00   0.00   0.00   0.00   0.00    0.98

          -------------------------------
          BOND ORDER AND VALENCE ANALYSIS     BOND ORDER THRESHOLD=0.050
          -------------------------------

                   BOND                       BOND                       BOND
  ATOM PAIR DIST  ORDER      ATOM PAIR DIST  ORDER      ATOM PAIR DIST  ORDER
    1   2  1.367  1.720        1   3  1.573  0.870        1   5  1.093  0.940
    2   4  1.573  0.870        2   6  1.093  0.940        3   4  1.367  1.720
    3   7  1.093  0.940        4   8  1.093  0.940

                       TOTAL       BONDED        FREE
      ATOM            VALENCE     VALENCE     VALENCE
    1 C                 3.927       3.493       0.434
    2 C                 3.927       3.493       0.434
    3 C                 3.927       3.493       0.434
    4 C                 3.927       3.493       0.434
    5 H                 1.006       0.939       0.067
    6 H                 1.006       0.939       0.067
    7 H                 1.006       0.939       0.067
    8 H                 1.006       0.939       0.067

          ---------------------
          ELECTROSTATIC MOMENTS
          ---------------------

 POINT   1           X           Y           Z (BOHR)    CHARGE
                 0.000000    0.000000    0.000000       -0.00 (A.U.)
         DX          DY          DZ         /D/  (DEBYE)
     0.000000   -0.000000    0.000000    0.000000
 ...... END OF PROPERTY EVALUATION ......
 STEP CPU TIME =     0.01 TOTAL CPU TIME =         42.1 (      0.7 MIN)
 TOTAL WALL CLOCK TIME=         42.3 SECONDS, CPU UTILIZATION IS    99.57%
             18754562  WORDS OF DYNAMIC MEMORY USED
 EXECUTION OF GAMESS TERMINATED NORMALLY Thu Jun 11 13:52:22 2020
 DDI: 263640 bytes (0.3 MB / 0 MWords) used by master data server.

 ----------------------------------------
 CPU timing information for all processes
 ========================================
 0: 37.685 + 4.427 = 42.113
 ----------------------------------------
 ddikick.x: exited gracefully.
----- accounting info -----
Files used on the master node stochastic.cem.msu.edu were:
-rw-r--r-- 1 gururang piecuch       441 Jun 11 13:51 /scratch/gururang/rectangle-d2h.F05
-rw-r--r-- 1 gururang piecuch   8460752 Jun 11 13:51 /scratch/gururang/rectangle-d2h.F08
-rw-r--r-- 1 gururang piecuch   5601528 Jun 11 13:51 /scratch/gururang/rectangle-d2h.F09
-rw-r--r-- 1 gururang piecuch  50790400 Jun 11 13:52 /scratch/gururang/rectangle-d2h.F10
-rw-r--r-- 1 gururang piecuch   1165824 Jun 11 13:51 /scratch/gururang/rectangle-d2h.F70
-rw-r--r-- 1 gururang piecuch  30801600 Jun 11 13:51 /scratch/gururang/rectangle-d2h.F71
-rw-r--r-- 1 gururang piecuch 337472448 Jun 11 13:51 /scratch/gururang/rectangle-d2h.F72
-rw-r--r-- 1 gururang piecuch     34720 Jun 11 13:52 /scratch/gururang/rectangle-d2h.F73
-rw-r--r-- 1 gururang piecuch  43052800 Jun 11 13:52 /scratch/gururang/rectangle-d2h.F74
-rw-r--r-- 1 gururang piecuch         0 Jun 11 13:51 /scratch/gururang/rectangle-d2h.F75
-rw-r--r-- 1 gururang piecuch   2480000 Jun 11 13:52 /scratch/gururang/rectangle-d2h.F76
-rw-r--r-- 1 gururang piecuch  95331200 Jun 11 13:52 /scratch/gururang/rectangle-d2h.F77
-rw-r--r-- 1 gururang piecuch         0 Jun 11 13:51 /scratch/gururang/rectangle-d2h.F80
-rw-r--r-- 1 gururang piecuch         0 Jun 11 13:51 /scratch/gururang/rectangle-d2h.F81
-rw-r--r-- 1 gururang piecuch   3075200 Jun 11 13:51 /scratch/gururang/rectangle-d2h.F82
-rw-r--r-- 1 gururang piecuch         0 Jun 11 13:51 /scratch/gururang/rectangle-d2h.F83
-rw-r--r-- 1 gururang piecuch         0 Jun 11 13:51 /scratch/gururang/rectangle-d2h.F84
-rw-r--r-- 1 gururang piecuch    240000 Jun 11 13:51 /scratch/gururang/rectangle-d2h.F85
-rw-r--r-- 1 gururang piecuch 118210688 Jun 11 13:51 /scratch/gururang/rectangle-d2h.F86
-rw-r--r-- 1 gururang piecuch         0 Jun 11 13:51 /scratch/gururang/rectangle-d2h.F87
-rw-r--r-- 1 gururang piecuch         0 Jun 11 13:51 /scratch/gururang/rectangle-d2h.F88
-rw-r--r-- 1 gururang piecuch   3080160 Jun 11 13:51 /scratch/gururang/rectangle-d2h.F89
-rw-r--r-- 1 gururang piecuch    492032 Jun 11 13:52 /scratch/gururang/rectangle-d2h.F90
-rw-r--r-- 1 gururang piecuch   1230080 Jun 11 13:51 /scratch/gururang/rectangle-d2h.F91
-rw-r--r-- 1 gururang piecuch         0 Jun 11 13:52 /scratch/gururang/rectangle-d2h.F92
-rw-r--r-- 1 gururang piecuch         0 Jun 11 13:52 /scratch/gururang/rectangle-d2h.F93
-rw-r--r-- 1 gururang piecuch         0 Jun 11 13:52 /scratch/gururang/rectangle-d2h.F94
-rw-r--r-- 1 gururang piecuch     24800 Jun 11 13:52 /scratch/gururang/rectangle-d2h.F95
-rw-r--r-- 1 gururang piecuch  15376000 Jun 11 13:52 /scratch/gururang/rectangle-d2h.F96
-rw-r--r-- 1 gururang piecuch   6160320 Jun 11 13:52 /scratch/gururang/rectangle-d2h.F97
-rw-r--r-- 1 gururang piecuch     24800 Jun 11 13:52 /scratch/gururang/rectangle-d2h.F98
-rw-r--r-- 1 gururang piecuch  15376000 Jun 11 13:52 /scratch/gururang/rectangle-d2h.F99
Thu Jun 11 13:52:25 EDT 2020
0.104u 0.193s 0:45.63 0.6%	0+0k 32+8io 1pf+0w
