----- GAMESS execution script 'rungms' -----
This job is running on host stochastic.cem.msu.edu
under operating system Linux at Thu Jun 11 15:19:02 EDT 2020
Available scratch disk space (Kbyte units) at beginning of the job is
Filesystem      1K-blocks       Used Available Use% Mounted on
/dev/sdb1      3904037360 3141151456 762885904  81% /scratch
GAMESS temporary binary files will be written to /scratch/gururang
GAMESS supplementary output files will be written to /home2/gururang/gamess/tests
Copying input file square-d2h.inp to your run's scratch directory...

 Distributed Data Interface kickoff program.
 Initiating 1 compute processes on 1 nodes to run the following command:
 /home2/gururang/gamess/gamess.00.x square-d2h 

          ******************************************************
          *      GAMESS VERSION = 30 JUN 2019 R1 Patch 1       *
          *             FROM IOWA STATE UNIVERSITY             *
          * M.W.SCHMIDT, K.K.BALDRIDGE, J.A.BOATZ, S.T.ELBERT, *
          *   M.S.GORDON, J.H.JENSEN, S.KOSEKI, N.MATSUNAGA,   *
          *          K.A.NGUYEN, S.J.SU, T.L.WINDUS,           *
          *       TOGETHER WITH M.DUPUIS, J.A.MONTGOMERY       *
          *         J.COMPUT.CHEM.  14, 1347-1363(1993)        *
          **************** 64 BIT LINUX VERSION ****************

  SINCE 1993, STUDENTS AND POSTDOCS WORKING AT IOWA STATE UNIVERSITY
  AND ALSO IN THEIR VARIOUS JOBS AFTER LEAVING ISU HAVE MADE IMPORTANT
  CONTRIBUTIONS TO THE CODE:
     IVANA ADAMOVIC, CHRISTINE AIKENS, YURI ALEXEEV, POOJA ARORA,
     ANDREY ASADCHEV, ROB BELL, PRADIPTA BANDYOPADHYAY, JONATHAN BENTZ,
     COLLEEN BERTONI, BRETT BODE, KURT BRORSEN, CALEB CARLIN, GALINA CHABAN,
     WEI CHEN, CHEOL HO CHOI, PAUL DAY, ALBERT DEFUSCO, NUWAN DESILVA,
     TIM DUDLEY, DMITRI FEDOROV, ALEX FINDLATER, GRAHAM FLETCHER, 
     MARK FREITAG, KURT GLAESEMANN, ANASTASIA GUNINA,
     DAN KEMP, GRANT MERRILL, NORIYUKI MINEZAWA, JONATHAN MULLIN,
     TAKESHI NAGATA, SEAN NEDD, HEATHER NETZLOFF, BOSILJKA NJEGIC, RYAN OLSON,
     MIKE PAK, BUU PHAM,
     SPENCER PRUITT, LUKE ROSKOP, JIM SHOEMAKER, LYUDMILA SLIPCHENKO,
     TONY SMITH, SAROM SOK LEANG, JIE SONG, TETSUYA TAKETSUGU, SIMON WEBB,
     PENG XU, SOOHAENG YOO, FEDERICO ZAHARIEV

  ADDITIONAL CODE HAS BEEN PROVIDED BY COLLABORATORS IN OTHER GROUPS:
     IOWA STATE UNIVERSITY:
          JOE IVANIC, AARON WEST, LAIMUTIS BYTAUTAS, KLAUS RUEDENBERG
     UNIVERSITY OF TOKYO: KIMIHIKO HIRAO, TAKAHITO NAKAJIMA,
          TAKAO TSUNEDA, MUNEAKI KAMIYA, SUSUMU YANAGISAWA,
          KIYOSHI YAGI, MAHITO CHIBA, SEIKEN TOKURA, NAOAKI KAWAKAMI
     UNIVERSITY OF AARHUS: FRANK JENSEN
     UNIVERSITY OF IOWA: VISVALDAS KAIRYS, HUI LI
     NATIONAL INST. OF STANDARDS AND TECHNOLOGY: WALT STEVENS, DAVID GARMER
     UNIVERSITY OF PISA: BENEDETTA MENNUCCI, JACOPO TOMASI
     UNIVERSITY OF MEMPHIS: HENRY KURTZ, PRAKASHAN KORAMBATH
     UNIVERSITY OF ALBERTA: TOBY ZENG, MARIUSZ KLOBUKOWSKI
     UNIVERSITY OF NEW ENGLAND: MARK SPACKMAN
     MIE UNIVERSITY: HIROAKI UMEDA
     NAT. INST. OF ADVANCED INDUSTRIAL SCIENCE AND TECHNOLOGY: KAZUO KITAURA
     MICHIGAN STATE UNIVERSITY:
          KAROL KOWALSKI, MARTA WLOCH, JEFFREY GOUR, JESSE LUTZ,
          WEI LI, JUN SHEN, J. EMILIANO DEUSTUA, PIOTR PIECUCH
     UNIVERSITY OF MINNESOTA:
          YINAN SHU
     UNIVERSITY OF SILESIA: MONIKA MUSIAL, STANISLAW KUCHARSKI
     FACULTES UNIVERSITAIRES NOTRE-DAME DE LA PAIX:
          OLIVIER QUINET, BENOIT CHAMPAGNE
     UNIVERSITY OF CALIFORNIA - SANTA BARBARA: BERNARD KIRTMAN
     INSTITUTE FOR MOLECULAR SCIENCE:
          KAZUYA ISHIMURA, MICHIO KATOUDA, AND SHIGERU NAGASE
     UNIVERSITY OF NOTRE DAME: ANNA POMOGAEVA, DAN CHIPMAN
     KYUSHU UNIVERSITY:
          HARUYUKI NAKANO,
          FENG LONG GU, JACEK KORCHOWIEC, MARCIN MAKOWSKI, AND YURIKO AOKI,
          HIROTOSHI MORI AND EISAKU MIYOSHI
     PENNSYLVANIA STATE UNIVERSITY:
          TZVETELIN IORDANOV, CHET SWALINA, JONATHAN SKONE,
          SHARON HAMMES-SCHIFFER
     WASEDA UNIVERSITY:
          MASATO KOBAYASHI, TOMOKO AKAMA, TSUGUKI TOUMA,
          TAKESHI YOSHIKAWA, YASUHIRO IKABATA, JUNJI SEINO,
          YUYA NAKAJIMA, HIROMI NAKAI
     NANJING UNIVERSITY: SHUHUA LI
     UNIVERSITY OF NEBRASKA:
          PEIFENG SU, DEJUN SI, NANDUN THELLAMUREGE, YALI WANG, HUI LI
     UNIVERSITY OF ZURICH: ROBERTO PEVERATI, KIM BALDRIDGE
     N. COPERNICUS UNIVERSITY AND JACKSON STATE UNIVERSITY:
          MARIA BARYSZ
     UNIVERSITY OF COPENHAGEN: Jimmy Kromann, CASPER STEINMANN
     TOKYO INSTITUTE OF TECHNOLOGY: HIROYA NAKATA
     NAGOYA UNIVERSITY: YOSHIO NISHIMOTO, STEPHAN IRLE
     MOSCOW STATE UNIVERSITY: VLADIMIR MIRONOV
     A.N.NESMEYANOV INSTITUTE OF ORGANOELEMENT COMPOUNDS OF RUSSIAN ACADEMY OF SCIENCES:
          IGOR S. GERASIMOV

 EXECUTION OF GAMESS BEGUN Thu Jun 11 15:19:02 2020

            ECHO OF THE FIRST FEW INPUT CARDS -
 INPUT CARD> $contrl runtyp=energy scftyp=rhf cctyp=cr-ccl maxit=100 $end                   
 INPUT CARD> $contrl icut=20 itol=30 ispher=1 mult=1 $end                                   
 INPUT CARD> $CONTRL ISPHER = 1 MULT=1 $END                                                 
 INPUT CARD> $system mwords=100 $end                                                        
 INPUT CARD> $guess guess=moread norb=76 $end                                               
 INPUT CARD> $scf nconv=10 diis=.true. soscf=.false. $end                                   
 INPUT CARD> $BASIS  GBASIS=CCD $END                                                        
 INPUT CARD> $ccinp nfzv=0 ncore=4 iconv=10 maxcc=100 $end                                  
 INPUT CARD> $data                                                                          
 INPUT CARD>Square cyclo-butadiene                                                          
 INPUT CARD>DNH 2                                                                           
 INPUT CARD>                                                                                
 INPUT CARD>  C     6.0     0.73050     0.73050     0.00000                                 
 INPUT CARD>  H     1.0     1.50266     1.50266     0.00000                                 
 INPUT CARD> $end                                                                           
 INPUT CARD> $VEC                                                                           
 INPUT CARD> 1  1 5.00690234E-01 1.59750825E-03-2.01287716E-03-1.49123195E-04 7.68505554E-05
 INPUT CARD> 1  2 0.00000000E+00 5.61833892E-05-4.67150004E-05 0.00000000E+00 2.22567180E-04
 INPUT CARD> 1  3-2.12308237E-04-1.02589429E-05 1.08754697E-04 0.00000000E+00 0.00000000E+00
 INPUT CARD> 1  4 5.00690234E-01 1.59750825E-03-2.01287716E-03 1.49123195E-04 7.68505554E-05
 INPUT CARD> 1  5 0.00000000E+00-5.61833892E-05-4.67150004E-05 0.00000000E+00 2.22567180E-04
 INPUT CARD> 1  6-2.12308237E-04-1.02589429E-05-1.08754697E-04 0.00000000E+00 0.00000000E+00
 INPUT CARD> 1  7 5.00690234E-01 1.59750825E-03-2.01287716E-03-1.49123195E-04-7.68505554E-05
 INPUT CARD> 1  8 0.00000000E+00 5.61833892E-05 4.67150004E-05 0.00000000E+00 2.22567180E-04
 INPUT CARD> 1  9-2.12308237E-04-1.02589429E-05-1.08754697E-04 0.00000000E+00 0.00000000E+00
 INPUT CARD> 1 10 5.00690234E-01 1.59750825E-03-2.01287716E-03 1.49123195E-04-7.68505554E-05
 INPUT CARD> 1 11 0.00000000E+00-5.61833892E-05 4.67150004E-05 0.00000000E+00 2.22567180E-04
 INPUT CARD> 1 12-2.12308237E-04-1.02589429E-05 1.08754697E-04 0.00000000E+00 0.00000000E+00
 INPUT CARD> 1 13-2.91794351E-04 6.66793535E-04-5.82555693E-05-1.96259558E-04 0.00000000E+00
 INPUT CARD> 1 14-2.91794351E-04 6.66793535E-04 5.82555693E-05-1.96259558E-04 0.00000000E+00
 INPUT CARD> 1 15-2.91794351E-04 6.66793535E-04-5.82555693E-05 1.96259558E-04 0.00000000E+00
 INPUT CARD> 1 16-2.91794351E-04 6.66793535E-04 5.82555693E-05 1.96259558E-04 0.00000000E+00
 INPUT CARD> 2  1 5.00769296E-01 1.72610115E-03-3.13703573E-03-1.29540206E-04-5.62431860E-05
 INPUT CARD> 2  2 0.00000000E+00 1.77176143E-04-7.07066013E-04 0.00000000E+00 9.99596829E-05
 INPUT CARD> 2  3 2.80544959E-04-3.80504642E-04 4.38904874E-04 0.00000000E+00 0.00000000E+00
 INPUT CARD> 2  4 5.00769296E-01 1.72610115E-03-3.13703573E-03 1.29540206E-04-5.62431860E-05
 INPUT CARD> 2  5 0.00000000E+00-1.77176143E-04-7.07066013E-04 0.00000000E+00 9.99596829E-05
 INPUT CARD> 2  6 2.80544959E-04-3.80504642E-04-4.38904874E-04 0.00000000E+00 0.00000000E+00
 INPUT CARD> 2  7-5.00769296E-01-1.72610115E-03 3.13703573E-03 1.29540206E-04-5.62431860E-05
 INPUT CARD> 2  8 0.00000000E+00-1.77176143E-04-7.07066013E-04 0.00000000E+00-9.99596829E-05
 INPUT CARD> 2  9-2.80544959E-04 3.80504642E-04 4.38904874E-04 0.00000000E+00 0.00000000E+00
 INPUT CARD> 2 10-5.00769296E-01-1.72610115E-03 3.13703573E-03-1.29540206E-04-5.62431860E-05
 INPUT CARD> 2 11 0.00000000E+00 1.77176143E-04-7.07066013E-04 0.00000000E+00-9.99596829E-05
 INPUT CARD> 2 12-2.80544959E-04 3.80504642E-04-4.38904874E-04 0.00000000E+00 0.00000000E+00
 INPUT CARD> 2 13-4.85170792E-04 4.63360643E-04-3.28773400E-04-2.29281800E-04 0.00000000E+00
 INPUT CARD> 2 14-4.85170792E-04 4.63360643E-04 3.28773400E-04-2.29281800E-04 0.00000000E+00
 INPUT CARD> 2 15 4.85170792E-04-4.63360643E-04 3.28773400E-04-2.29281800E-04 0.00000000E+00
 INPUT CARD> 2 16 4.85170792E-04-4.63360643E-04-3.28773400E-04-2.29281800E-04 0.00000000E+00
 INPUT CARD> 3  1 5.01164015E-01 2.17269592E-03-4.35030442E-03-1.04479401E-05 8.85513268E-05
 INPUT CARD> 3  2 0.00000000E+00-1.36446015E-03-2.10502586E-04 0.00000000E+00 5.68273328E-04
  100000000 WORDS OF MEMORY AVAILABLE

     BASIS OPTIONS
     -------------
     GBASIS=CCD          IGAUSS=       0      POLAR=NONE    
     NDFUNC=       0     NFFUNC=       0     DIFFSP=       F
     NPFUNC=       0      DIFFS=       F     BASNAM=        


     RUN TITLE
     ---------
 Square cyclo-butadiene                                                          

 THE POINT GROUP OF THE MOLECULE IS DNH     
 THE ORDER OF THE PRINCIPAL AXIS IS     2

 ATOM      ATOMIC                      COORDINATES (BOHR)
           CHARGE         X                   Y                   Z
 C           6.0    -1.3804448340       -1.3804448340        0.0000000000
 C           6.0     1.3804448340       -1.3804448340        0.0000000000
 C           6.0    -1.3804448340        1.3804448340        0.0000000000
 C           6.0     1.3804448340        1.3804448340        0.0000000000
 H           1.0    -2.8396156527       -2.8396156527        0.0000000000
 H           1.0     2.8396156527       -2.8396156527        0.0000000000
 H           1.0    -2.8396156527        2.8396156527        0.0000000000
 H           1.0     2.8396156527        2.8396156527        0.0000000000

          INTERNUCLEAR DISTANCES (ANGS.)
          ------------------------------

                1 C          2 C          3 C          4 C          5 H     

   1 C       0.0000000    1.4610000 *  1.4610000 *  2.0661660 *  1.0919991 *
   2 C       1.4610000 *  0.0000000    2.0661660 *  1.4610000 *  2.3628869 *
   3 C       1.4610000 *  2.0661660 *  0.0000000    1.4610000 *  2.3628869 *
   4 C       2.0661660 *  1.4610000 *  1.4610000 *  0.0000000    3.1581652  
   5 H       1.0919991 *  2.3628869 *  2.3628869 *  3.1581652    0.0000000  
   6 H       2.3628869 *  1.0919991 *  3.1581652    2.3628869 *  3.0053200  
   7 H       2.3628869 *  3.1581652    1.0919991 *  2.3628869 *  3.0053200  
   8 H       3.1581652    2.3628869 *  2.3628869 *  1.0919991 *  4.2501643  

                6 H          7 H          8 H     

   1 C       2.3628869 *  2.3628869 *  3.1581652  
   2 C       1.0919991 *  3.1581652    2.3628869 *
   3 C       3.1581652    1.0919991 *  2.3628869 *
   4 C       2.3628869 *  2.3628869 *  1.0919991 *
   5 H       3.0053200    3.0053200    4.2501643  
   6 H       0.0000000    4.2501643    3.0053200  
   7 H       4.2501643    0.0000000    3.0053200  
   8 H       3.0053200    3.0053200    0.0000000  

  * ... LESS THAN  3.000


     ATOMIC BASIS SET
     ----------------
 THE CONTRACTED PRIMITIVE FUNCTIONS HAVE BEEN UNNORMALIZED
 THE CONTRACTED BASIS FUNCTIONS ARE NOW NORMALIZED TO UNITY

  SHELL TYPE  PRIMITIVE        EXPONENT          CONTRACTION COEFFICIENT(S)

 C         

     19   S       1          6665.0000000    0.000691583963
     19   S       2          1000.0000000    0.005325796153
     19   S       3           228.0000000    0.027060721042
     19   S       4            64.7100000    0.101656846141
     19   S       5            21.0600000    0.274574823617
     19   S       6             7.4950000    0.448294318924
     19   S       7             2.7970000    0.284902610715
     19   S       8             0.5215000    0.015194859206

     20   S       9          6665.0000000   -0.000293269653
     20   S      10          1000.0000000   -0.002318035474
     20   S      11           228.0000000   -0.011499786039
     20   S      12            64.7100000   -0.046826727010
     20   S      13            21.0600000   -0.128466168750
     20   S      14             7.4950000   -0.301266272463
     20   S      15             2.7970000   -0.255630702330
     20   S      16             0.5215000    1.093793361012

     21   S      17             0.1596000    1.000000000000

     22   P      18             9.4390000    0.056979251590
     22   P      19             2.0020000    0.313207211501
     22   P      20             0.5456000    0.760376741738

     23   P      21             0.1517000    1.000000000000

     24   D      22             0.5500000    1.000000000000

 H         

     34   S      23            13.0100000    0.033498726390
     34   S      24             1.9620000    0.234800801174
     34   S      25             0.4446000    0.813682957883

     35   S      26             0.1220000    1.000000000000

     36   P      27             0.7270000    1.000000000000

 TOTAL NUMBER OF BASIS SET SHELLS             =   36
 NUMBER OF CARTESIAN GAUSSIAN BASIS FUNCTIONS =   80
 NOTE: THIS RUN WILL RESTRICT THE MO VARIATION SPACE TO SPHERICAL HARMONICS.
 THE NUMBER OF ORBITALS KEPT IN THE VARIATIONAL SPACE WILL BE PRINTED LATER.
 NUMBER OF ELECTRONS                          =   28
 CHARGE OF MOLECULE                           =    0
 SPIN MULTIPLICITY                            =    1
 NUMBER OF OCCUPIED ORBITALS (ALPHA)          =   14
 NUMBER OF OCCUPIED ORBITALS (BETA )          =   14
 TOTAL NUMBER OF ATOMS                        =    8
 THE NUCLEAR REPULSION ENERGY IS       97.9522141245

     $CONTRL OPTIONS
     ---------------
 SCFTYP=RHF          RUNTYP=ENERGY       EXETYP=RUN     
 MPLEVL=       0     CITYP =NONE         CCTYP =CR-CCL       VBTYP =NONE    
 DFTTYP=NONE         TDDFT =NONE    
 MULT  =       1     ICHARG=       0     NZVAR =       0     COORD =UNIQUE  
 PP    =NONE         RELWFN=NONE         LOCAL =NONE         NUMGRD=       F
 ISPHER=       1     NOSYM =       0     MAXIT =     100     UNITS =ANGS    
 PLTORB=       F     MOLPLT=       F     AIMPAC=       F     FRIEND=        
 NPRINT=       7     IREST =       0     GEOM  =INPUT   
 NORMF =       0     NORMP =       0     ITOL  =      30     ICUT  =      20
 INTTYP=BEST         GRDTYP=BEST         QMTTOL= 1.0E-06

     $SYSTEM OPTIONS
     ---------------
  REPLICATED MEMORY=   100000000 WORDS (ON EVERY NODE).
 DISTRIBUTED MEMDDI=           0 MILLION WORDS IN AGGREGATE,
 MEMDDI DISTRIBUTED OVER   1 PROCESSORS IS           0 WORDS/PROCESSOR.
 TOTAL MEMORY REQUESTED ON EACH PROCESSOR=   100000000 WORDS.
 TIMLIM=      525600.00 MINUTES, OR     365.0 DAYS.
 PARALL= F  BALTYP=  DLB     KDIAG=    0  COREFL= F
 MXSEQ2=     300 MXSEQ3=     150  mem10=         0

          ----------------
          PROPERTIES INPUT
          ----------------

     MOMENTS            FIELD           POTENTIAL          DENSITY
 IEMOM =       1   IEFLD =       0   IEPOT =       0   IEDEN =       0
 WHERE =COMASS     WHERE =NUCLEI     WHERE =NUCLEI     WHERE =NUCLEI  
 OUTPUT=BOTH       OUTPUT=BOTH       OUTPUT=BOTH       OUTPUT=BOTH    
 IEMINT=       0   IEFINT=       0                     IEDINT=       0
                                                       MORB  =       0
          EXTRAPOLATION IN EFFECT
          DIIS IN EFFECT
 ORBITAL PRINTING OPTION: NPREO=     1    80     2     1

     -------------------------------
     INTEGRAL TRANSFORMATION OPTIONS
     -------------------------------
     NWORD  =            0
     CUTOFF = 1.0E-09     MPTRAN =       0
     DIRTRF =       F     AOINTS =DUP     

          ----------------------
          INTEGRAL INPUT OPTIONS
          ----------------------
 NOPK  =       1 NORDER=       0 SCHWRZ=       T

     -------------------------------------------
     EQUATION OF MOTION INPUT FOR EXCITED STATES
     -------------------------------------------
     OPTIONS FOR STATE SELECTION:
     GROUP =D2H       NSTATE= 0, 0, 0, 0, 0, 0, 0, 0    IROOT = 1, 0
     OPTIONS FOR THE EOM-CCSD:
     MEOM  =       0  MAXEOM=      50  MICEOM=      80  CVGEOM= 1.0E-10
     OPTIONS FOR PROPERTIES:
     CCPRP =       T  CCPRPE =       F
     OPTIONS FOR INITIAL GUESSES:
     MINIT =       2  MACT =       0  NOACT =       0  NUACT =       0
     NO DOUBLE EXCITATIONS WILL BE INCLUDED IN THE INITIAL GUESS

     ------------------------------------------
     THE POINT GROUP IS DNH, NAXIS= 2, ORDER= 8
     ------------------------------------------

 -- VARIATIONAL SPACE WILL BE RESTRICTED TO PURE SPHERICAL HARMONICS ONLY --
 AFTER EXCLUDING CONTAMINANT COMBINATIONS FROM THE CARTESIAN GAUSSIAN BASIS
 SET, THE NUMBER OF SPHERICAL HARMONICS KEPT IN THE VARIATION SPACE IS   76

     DIMENSIONS OF THE SYMMETRY SUBSPACES ARE
 AG  =   14     AU  =    5     B3U =   14     B3G =    5     B1G =   14
 B1U =    5     B2U =   14     B2G =    5

 ..... DONE SETTING UP THE RUN .....
 STEP CPU TIME =     0.07 TOTAL CPU TIME =          0.1 (      0.0 MIN)
 TOTAL WALL CLOCK TIME=          0.1 SECONDS, CPU UTILIZATION IS    87.50%

          ********************
          1 ELECTRON INTEGRALS
          ********************
 ...... END OF ONE-ELECTRON INTEGRALS ......
 STEP CPU TIME =     0.02 TOTAL CPU TIME =          0.1 (      0.0 MIN)
 TOTAL WALL CLOCK TIME=          0.1 SECONDS, CPU UTILIZATION IS    90.00%

          -------------
          GUESS OPTIONS
          -------------
          GUESS =MOREAD            NORB  =      76          NORDER=       0
          MIX   =       F          PRTMO =       F          PUNMO =       F
          TOLZ  = 1.0E-08          TOLE  = 1.0E-05
          SYMDEN=       F          PURIFY=       F

 INITIAL GUESS ORBITALS GENERATED BY MOREAD   ROUTINE.

 STATISTICS FOR GENERATION OF SYMMETRY ORBITAL -Q- MATRIX
 NUMBER OF CARTESIAN ATOMIC ORBITALS=         80
 NUMBER OF SPHERICAL CONTAMINANTS DROPPED=     4
 NUMBER OF LINEARLY DEPENDENT MOS DROPPED=     0
 TOTAL NUMBER OF MOS IN VARIATION SPACE=      76

 SYMMETRIES FOR INITIAL GUESS ORBITALS FOLLOW.   BOTH SET(S).
    14 ORBITALS ARE OCCUPIED (    4 CORE ORBITALS).
     1=AG       2=B2U      3=B3U      4=B1G      5=AG       6=B2U      7=B3U 
     8=B1G      9=AG      10=B2U     11=AG      12=B1U     13=B3U     14=B3G 
    15=B2G     16=AG      17=B2U     18=B1G     19=B3U     20=AU      21=B2U 
    22=B3U     23=B1G     24=AG      25=AG      26=B1G     27=B2U     28=B1U 
    29=B3G     30=B3U     31=B2G     32=B2U     33=AG      34=AU      35=B3U 
    36=B1G     37=AG      38=B1G     39=B2U     40=B1U     41=B3U     42=B1U 
    43=B2U     44=B1G     45=B2G     46=B3U     47=B3G     48=AG      49=AG  
    50=B3U     51=B1G     52=B3G     53=AU      54=B2U     55=B2G     56=AG  
    57=B1U     58=B2U     59=B3U     60=B1G     61=AU      62=B3G     63=B2U 
    64=AG      65=B3U     66=B2G     67=B1G     68=B1G     69=AU      70=B2U 
    71=B3U     72=AG      73=B1G     74=B2U     75=B3U     76=B1G 
 ...... END OF INITIAL ORBITAL SELECTION ......
 STEP CPU TIME =     0.02 TOTAL CPU TIME =          0.1 (      0.0 MIN)
 TOTAL WALL CLOCK TIME=          0.1 SECONDS, CPU UTILIZATION IS    91.67%

                    ----------------------
                    AO INTEGRAL TECHNOLOGY
                    ----------------------
     S,P,L SHELL ROTATED AXIS INTEGRALS, REPROGRAMMED BY
        KAZUYA ISHIMURA (IMS) AND JOSE SIERRA (SYNSTAR).
     S,P,D,L SHELL ROTATED AXIS INTEGRALS PROGRAMMED BY
        KAZUYA ISHIMURA (INSTITUTE FOR MOLECULAR SCIENCE).
     S,P,D,F,G SHELL TO TOTAL QUARTET ANGULAR MOMENTUM SUM 5,
        ERIC PROGRAM BY GRAHAM FLETCHER (ELORET AND NASA ADVANCED
        SUPERCOMPUTING DIVISION, AMES RESEARCH CENTER).
     S,P,D,F,G,L SHELL GENERAL RYS QUADRATURE PROGRAMMED BY
        MICHEL DUPUIS (PACIFIC NORTHWEST NATIONAL LABORATORY).

          --------------------
          2 ELECTRON INTEGRALS
          --------------------

 THE -PK- OPTION IS OFF, THE INTEGRALS ARE NOT IN SUPERMATRIX FORM.
 STORING   15000 INTEGRALS/RECORD ON DISK, USING 12 BYTES/INTEGRAL.
 TWO ELECTRON INTEGRAL EVALUATION REQUIRES   91062 WORDS OF MEMORY.
 SCHWARZ INEQUALITY OVERHEAD:      3240 INTEGRALS, T=        0.00
 II,JST,KST,LST =  1  1  1  1 NREC =         1 INTLOC =    1
 II,JST,KST,LST =  2  1  1  1 NREC =         1 INTLOC =    1
 II,JST,KST,LST =  3  1  1  1 NREC =         1 INTLOC =    1
 II,JST,KST,LST =  4  1  1  1 NREC =         1 INTLOC =    1
 II,JST,KST,LST =  5  1  1  1 NREC =         1 INTLOC =    1
 II,JST,KST,LST =  6  1  1  1 NREC =         1 INTLOC =    1
 II,JST,KST,LST =  7  1  1  1 NREC =         1 INTLOC =    1
 II,JST,KST,LST =  8  1  1  1 NREC =         1 INTLOC =    1
 II,JST,KST,LST =  9  1  1  1 NREC =         1 INTLOC =    1
 II,JST,KST,LST = 10  1  1  1 NREC =         1 INTLOC =    1
 II,JST,KST,LST = 11  1  1  1 NREC =         1 INTLOC =    1
 II,JST,KST,LST = 12  1  1  1 NREC =         1 INTLOC =    1
 II,JST,KST,LST = 13  1  1  1 NREC =         1 INTLOC =    1
 II,JST,KST,LST = 14  1  1  1 NREC =         1 INTLOC =    1
 II,JST,KST,LST = 15  1  1  1 NREC =         1 INTLOC =    1
 II,JST,KST,LST = 16  1  1  1 NREC =         1 INTLOC =    1
 II,JST,KST,LST = 17  1  1  1 NREC =         1 INTLOC =    1
 II,JST,KST,LST = 18  1  1  1 NREC =         1 INTLOC =    1
 II,JST,KST,LST = 19  1  1  1 NREC =         1 INTLOC =    1
 II,JST,KST,LST = 20  1  1  1 NREC =         1 INTLOC =   20
 II,JST,KST,LST = 21  1  1  1 NREC =         1 INTLOC =  187
 II,JST,KST,LST = 22  1  1  1 NREC =         1 INTLOC =  814
 II,JST,KST,LST = 23  1  1  1 NREC =         1 INTLOC = 6745
 II,JST,KST,LST = 24  1  1  1 NREC =         2 INTLOC =14472
 II,JST,KST,LST = 25  1  1  1 NREC =        15 INTLOC = 3094
 II,JST,KST,LST = 26  1  1  1 NREC =        15 INTLOC = 3094
 II,JST,KST,LST = 27  1  1  1 NREC =        15 INTLOC = 3094
 II,JST,KST,LST = 28  1  1  1 NREC =        15 INTLOC = 3094
 II,JST,KST,LST = 29  1  1  1 NREC =        15 INTLOC = 3094
 II,JST,KST,LST = 30  1  1  1 NREC =        15 INTLOC = 3094
 II,JST,KST,LST = 31  1  1  1 NREC =        15 INTLOC = 3094
 II,JST,KST,LST = 32  1  1  1 NREC =        15 INTLOC = 3094
 II,JST,KST,LST = 33  1  1  1 NREC =        15 INTLOC = 3094
 II,JST,KST,LST = 34  1  1  1 NREC =        15 INTLOC = 3094
 II,JST,KST,LST = 35  1  1  1 NREC =        19 INTLOC =14312
 II,JST,KST,LST = 36  1  1  1 NREC =        25 INTLOC =11534
 SCHWARZ INEQUALITY TEST SKIPPED           0 INTEGRAL BLOCKS.
 TOTAL NUMBER OF NONZERO TWO-ELECTRON INTEGRALS =              707522
         48 INTEGRAL RECORDS WERE STORED ON DISK FILE  8.
  ...... END OF TWO-ELECTRON INTEGRALS .....
 STEP CPU TIME =     0.19 TOTAL CPU TIME =          0.3 (      0.0 MIN)
 TOTAL WALL CLOCK TIME=          0.3 SECONDS, CPU UTILIZATION IS    96.77%

          --------------------------
                 RHF SCF CALCULATION
          --------------------------

     NUCLEAR ENERGY =        97.9522141245
     MAXIT =  100     NPUNCH=    2
     EXTRAP=T  DAMP=F  SHIFT=F  RSTRCT=F  DIIS=T  DEM=F  SOSCF=F
     DENSITY MATRIX CONV=  1.00E-10
     MEMORY REQUIRED FOR RHF ITERS=     81310 WORDS.

 ITER EX DEM     TOTAL ENERGY        E CHANGE  DENSITY CHANGE    DIIS ERROR
          * * *   INITIATING DIIS PROCEDURE   * * *
   1  0  0     -153.5896139423  -153.5896139423   0.031364793   0.041429181
   2  1  0     -153.6015440466    -0.0119301042   0.009232609   0.015296772
   3  2  0     -153.6025793979    -0.0010353513   0.002149071   0.004209248
   4  3  0     -153.6026285633    -0.0000491655   0.000783780   0.001463358
   5  4  0     -153.6026349597    -0.0000063963   0.000298046   0.000431881
   6  5  0     -153.6026354911    -0.0000005314   0.000030085   0.000042785
   7  6  0     -153.6026355010    -0.0000000099   0.000003797   0.000004823
   8  7  0     -153.6026355012    -0.0000000002   0.000000732   0.000000879
   9  8  0     -153.6026355012    -0.0000000000   0.000000115   0.000000104
  10  9  0     -153.6026355012    -0.0000000000   0.000000010   0.000000013
  11 10  0     -153.6026355012    -0.0000000000   0.000000002   0.000000002
  12 11  0     -153.6026355012     0.0000000000   0.000000000   0.000000000
  13 12  0     -153.6026355012    -0.0000000000   0.000000000   0.000000000
  14 13  0     -153.6026355012     0.0000000000   0.000000000   0.000000000

 RHF HAS CONVERGED, NOW COMPUTING EXACT TOTAL FOCK MATRIX
 FOR USE DURING THE COUPLED CLUSTER CALCULATION THAT FOLLOWS.

          -----------------
          DENSITY CONVERGED
          -----------------
     TIME TO FORM FOCK OPERATORS=       0.1 SECONDS (       0.0 SEC/ITER)
     TIME TO SOLVE SCF EQUATIONS=       0.2 SECONDS (       0.0 SEC/ITER)

 FINAL RHF ENERGY IS     -153.6026355012 AFTER  14 ITERATIONS

          ------------
          EIGENVECTORS
          ------------

                      1          2          3          4          5
                  -11.2591   -11.2584   -11.2582   -11.2575    -1.1552
                     AG         B2U        B3U        B1G        AG  
    1  C  1  S    0.500727   0.500915   0.501004   0.501317  -0.012705
    2  C  1  S    0.001603   0.001884   0.001977   0.002432   0.214057
    3  C  1  S   -0.002031  -0.003175  -0.003875  -0.008514   0.120542
    4  C  1  X   -0.000133  -0.000145  -0.000141  -0.000061   0.072898
    5  C  1  Y    0.000078   0.000170   0.000107   0.000297   0.082680
    6  C  1  Z   -0.000000   0.000000   0.000000  -0.000000   0.000000
    7  C  1  X    0.000054   0.000213  -0.001215  -0.002339   0.013366
    8  C  1  Y   -0.000074  -0.000664  -0.000281  -0.002380   0.014810
    9  C  1  Z   -0.000000   0.000000   0.000000  -0.000000   0.000000
   10  C  1 XX    0.000029  -0.000093   0.000453   0.000196   0.006018
   11  C  1 YY   -0.000044   0.000526  -0.000055   0.000435   0.007711
   12  C  1 ZZ    0.000015  -0.000434  -0.000398  -0.000631  -0.013729
   13  C  1 XY    0.000104   0.000485   0.000481   0.001029   0.003310
   14  C  1 XZ   -0.000000   0.000000   0.000000  -0.000000   0.000000
   15  C  1 YZ   -0.000000   0.000000   0.000000  -0.000000   0.000000
   16  C  2  S    0.500727   0.500915  -0.501004  -0.501317  -0.012705
   17  C  2  S    0.001603   0.001884  -0.001977  -0.002432   0.214057
   18  C  2  S   -0.002031  -0.003175   0.003875   0.008514   0.120542
   19  C  2  X    0.000133   0.000145  -0.000141  -0.000061  -0.072898
   20  C  2  Y    0.000078   0.000170  -0.000107  -0.000297   0.082680
   21  C  2  Z   -0.000000   0.000000   0.000000  -0.000000   0.000000
   22  C  2  X   -0.000054  -0.000213  -0.001215  -0.002339  -0.013366
   23  C  2  Y   -0.000074  -0.000664   0.000281   0.002380   0.014810
   24  C  2  Z   -0.000000   0.000000   0.000000  -0.000000   0.000000
   25  C  2 XX    0.000029  -0.000093  -0.000453  -0.000196   0.006018
   26  C  2 YY   -0.000044   0.000526   0.000055  -0.000435   0.007711
   27  C  2 ZZ    0.000015  -0.000434   0.000398   0.000631  -0.013729
   28  C  2 XY   -0.000104  -0.000485   0.000481   0.001029  -0.003310
   29  C  2 XZ   -0.000000   0.000000   0.000000  -0.000000   0.000000
   30  C  2 YZ   -0.000000   0.000000   0.000000  -0.000000   0.000000
   31  C  3  S    0.500727  -0.500915   0.501004  -0.501317  -0.012705
   32  C  3  S    0.001603  -0.001884   0.001977  -0.002432   0.214057
   33  C  3  S   -0.002031   0.003175  -0.003875   0.008514   0.120542
   34  C  3  X   -0.000133   0.000145  -0.000141   0.000061   0.072898
   35  C  3  Y   -0.000078   0.000170  -0.000107   0.000297  -0.082680
   36  C  3  Z   -0.000000   0.000000   0.000000  -0.000000   0.000000
   37  C  3  X    0.000054  -0.000213  -0.001215   0.002339   0.013366
   38  C  3  Y    0.000074  -0.000664   0.000281  -0.002380  -0.014810
   39  C  3  Z   -0.000000   0.000000   0.000000  -0.000000   0.000000
   40  C  3 XX    0.000029   0.000093   0.000453  -0.000196   0.006018
   41  C  3 YY   -0.000044  -0.000526  -0.000055  -0.000435   0.007711
   42  C  3 ZZ    0.000015   0.000434  -0.000398   0.000631  -0.013729
   43  C  3 XY   -0.000104   0.000485  -0.000481   0.001029  -0.003310
   44  C  3 XZ   -0.000000   0.000000   0.000000  -0.000000   0.000000
   45  C  3 YZ   -0.000000   0.000000   0.000000  -0.000000   0.000000
   46  C  4  S    0.500727  -0.500915  -0.501004   0.501317  -0.012705
   47  C  4  S    0.001603  -0.001884  -0.001977   0.002432   0.214057
   48  C  4  S   -0.002031   0.003175   0.003875  -0.008514   0.120542
   49  C  4  X    0.000133  -0.000145  -0.000141   0.000061  -0.072898
   50  C  4  Y   -0.000078   0.000170   0.000107  -0.000297  -0.082680
   51  C  4  Z   -0.000000   0.000000   0.000000  -0.000000   0.000000
   52  C  4  X   -0.000054   0.000213  -0.001215   0.002339  -0.013366
   53  C  4  Y    0.000074  -0.000664  -0.000281   0.002380  -0.014810
   54  C  4  Z   -0.000000   0.000000   0.000000  -0.000000   0.000000
   55  C  4 XX    0.000029   0.000093  -0.000453   0.000196   0.006018
   56  C  4 YY   -0.000044  -0.000526   0.000055   0.000435   0.007711
   57  C  4 ZZ    0.000015   0.000434   0.000398  -0.000631  -0.013729
   58  C  4 XY    0.000104  -0.000485  -0.000481   0.001029   0.003310
   59  C  4 XZ   -0.000000   0.000000   0.000000  -0.000000   0.000000
   60  C  4 YZ   -0.000000   0.000000   0.000000  -0.000000   0.000000
   61  H  5  S   -0.000276  -0.000513  -0.000569  -0.000846   0.042139
   62  H  5  S    0.000666   0.000472   0.000225  -0.000275  -0.000214
   63  H  5  X   -0.000112  -0.000393  -0.000196  -0.000417   0.004937
   64  H  5  Y   -0.000119  -0.000208  -0.000383  -0.000378   0.005450
   65  H  5  Z   -0.000000   0.000000   0.000000  -0.000000   0.000000
   66  H  6  S   -0.000276  -0.000513   0.000569   0.000846   0.042139
   67  H  6  S    0.000666   0.000472  -0.000225   0.000275  -0.000214
   68  H  6  X    0.000112   0.000393  -0.000196  -0.000417  -0.004937
   69  H  6  Y   -0.000119  -0.000208   0.000383   0.000378   0.005450
   70  H  6  Z   -0.000000   0.000000   0.000000  -0.000000   0.000000
   71  H  7  S   -0.000276   0.000513  -0.000569   0.000846   0.042139
   72  H  7  S    0.000666  -0.000472   0.000225   0.000275  -0.000214
   73  H  7  X   -0.000112   0.000393  -0.000196   0.000417   0.004937
   74  H  7  Y    0.000119  -0.000208   0.000383  -0.000378  -0.005450
   75  H  7  Z   -0.000000   0.000000   0.000000  -0.000000   0.000000
   76  H  8  S   -0.000276   0.000513   0.000569  -0.000846   0.042139
   77  H  8  S    0.000666  -0.000472  -0.000225  -0.000275  -0.000214
   78  H  8  X    0.000112  -0.000393  -0.000196   0.000417  -0.004937
   79  H  8  Y    0.000119  -0.000208  -0.000383   0.000378  -0.005450
   80  H  8  Z   -0.000000   0.000000   0.000000  -0.000000   0.000000

                      6          7          8          9         10
                   -0.8677    -0.8622    -0.6997    -0.6914    -0.5356
                     B3U        B2U        B1G        AG         AG  
    1  C  1  S   -0.009260  -0.012639  -0.007612  -0.006181   0.001105
    2  C  1  S    0.200219   0.195395   0.146530   0.034284  -0.002033
    3  C  1  S    0.163173   0.192456   0.211941   0.057980  -0.000341
    4  C  1  X   -0.104995   0.057470  -0.106242  -0.170437  -0.224057
    5  C  1  Y    0.070890  -0.098907  -0.101010  -0.160782   0.229165
    6  C  1  Z    0.000000  -0.000000  -0.000000  -0.000000   0.000000
    7  C  1  X   -0.016185   0.038249  -0.010681  -0.051242  -0.102458
    8  C  1  Y    0.038499   0.001364   0.005713  -0.044923   0.098741
    9  C  1  Z    0.000000  -0.000000  -0.000000  -0.000000   0.000000
   10  C  1 XX   -0.012619   0.018859   0.002512   0.000384  -0.017094
   11  C  1 YY    0.020696  -0.015527  -0.000890  -0.002776   0.020367
   12  C  1 ZZ   -0.008077  -0.003332  -0.001622   0.002392  -0.003273
   13  C  1 XY   -0.004031   0.000192   0.015360  -0.008189  -0.003792
   14  C  1 XZ    0.000000  -0.000000  -0.000000  -0.000000   0.000000
   15  C  1 YZ    0.000000  -0.000000  -0.000000  -0.000000   0.000000
   16  C  2  S    0.009260  -0.012639   0.007612  -0.006181   0.001105
   17  C  2  S   -0.200219   0.195395  -0.146530   0.034284  -0.002033
   18  C  2  S   -0.163173   0.192456  -0.211941   0.057980  -0.000341
   19  C  2  X   -0.104995  -0.057470  -0.106242   0.170437   0.224057
   20  C  2  Y   -0.070890  -0.098907   0.101010  -0.160782   0.229165
   21  C  2  Z    0.000000  -0.000000  -0.000000  -0.000000   0.000000
   22  C  2  X   -0.016185  -0.038249  -0.010681   0.051242   0.102458
   23  C  2  Y   -0.038499   0.001364  -0.005713  -0.044923   0.098741
   24  C  2  Z    0.000000  -0.000000  -0.000000  -0.000000   0.000000
   25  C  2 XX    0.012619   0.018859  -0.002512   0.000384  -0.017094
   26  C  2 YY   -0.020696  -0.015527   0.000890  -0.002776   0.020367
   27  C  2 ZZ    0.008077  -0.003332   0.001622   0.002392  -0.003273
   28  C  2 XY   -0.004031  -0.000192   0.015360   0.008189   0.003792
   29  C  2 XZ    0.000000  -0.000000  -0.000000  -0.000000   0.000000
   30  C  2 YZ    0.000000  -0.000000  -0.000000  -0.000000   0.000000
   31  C  3  S   -0.009260   0.012639   0.007612  -0.006181   0.001105
   32  C  3  S    0.200219  -0.195395  -0.146530   0.034284  -0.002033
   33  C  3  S    0.163173  -0.192456  -0.211941   0.057980  -0.000341
   34  C  3  X   -0.104995  -0.057470   0.106242  -0.170437  -0.224057
   35  C  3  Y   -0.070890  -0.098907  -0.101010   0.160782  -0.229165
   36  C  3  Z    0.000000  -0.000000  -0.000000  -0.000000   0.000000
   37  C  3  X   -0.016185  -0.038249   0.010681  -0.051242  -0.102458
   38  C  3  Y   -0.038499   0.001364   0.005713   0.044923  -0.098741
   39  C  3  Z    0.000000  -0.000000  -0.000000  -0.000000   0.000000
   40  C  3 XX   -0.012619  -0.018859  -0.002512   0.000384  -0.017094
   41  C  3 YY    0.020696   0.015527   0.000890  -0.002776   0.020367
   42  C  3 ZZ   -0.008077   0.003332   0.001622   0.002392  -0.003273
   43  C  3 XY    0.004031   0.000192   0.015360   0.008189   0.003792
   44  C  3 XZ    0.000000  -0.000000  -0.000000  -0.000000   0.000000
   45  C  3 YZ    0.000000  -0.000000  -0.000000  -0.000000   0.000000
   46  C  4  S    0.009260   0.012639  -0.007612  -0.006181   0.001105
   47  C  4  S   -0.200219  -0.195395   0.146530   0.034284  -0.002033
   48  C  4  S   -0.163173  -0.192456   0.211941   0.057980  -0.000341
   49  C  4  X   -0.104995   0.057470   0.106242   0.170437   0.224057
   50  C  4  Y    0.070890  -0.098907   0.101010   0.160782  -0.229165
   51  C  4  Z    0.000000  -0.000000  -0.000000  -0.000000   0.000000
   52  C  4  X   -0.016185   0.038249   0.010681   0.051242   0.102458
   53  C  4  Y    0.038499   0.001364  -0.005713   0.044923  -0.098741
   54  C  4  Z    0.000000  -0.000000  -0.000000  -0.000000   0.000000
   55  C  4 XX    0.012619  -0.018859   0.002512   0.000384  -0.017094
   56  C  4 YY   -0.020696   0.015527  -0.000890  -0.002776   0.020367
   57  C  4 ZZ    0.008077   0.003332  -0.001622   0.002392  -0.003273
   58  C  4 XY    0.004031  -0.000192   0.015360  -0.008189  -0.003792
   59  C  4 XZ    0.000000  -0.000000  -0.000000  -0.000000   0.000000
   60  C  4 YZ    0.000000  -0.000000  -0.000000  -0.000000   0.000000
   61  H  5  S    0.126907   0.130040   0.208943   0.198323  -0.007472
   62  H  5  S    0.026961   0.033339   0.069722   0.055695  -0.006089
   63  H  5  X    0.007786   0.012779   0.011937   0.012428  -0.005515
   64  H  5  Y    0.013403   0.008258   0.012430   0.013429   0.004854
   65  H  5  Z    0.000000  -0.000000  -0.000000  -0.000000   0.000000
   66  H  6  S   -0.126907   0.130040  -0.208943   0.198323  -0.007472
   67  H  6  S   -0.026961   0.033339  -0.069722   0.055695  -0.006089
   68  H  6  X    0.007786  -0.012779   0.011937  -0.012428   0.005515
   69  H  6  Y   -0.013403   0.008258  -0.012430   0.013429   0.004854
   70  H  6  Z    0.000000  -0.000000  -0.000000  -0.000000   0.000000
   71  H  7  S    0.126907  -0.130040  -0.208943   0.198323  -0.007472
   72  H  7  S    0.026961  -0.033339  -0.069722   0.055695  -0.006089
   73  H  7  X    0.007786  -0.012779  -0.011937   0.012428  -0.005515
   74  H  7  Y   -0.013403   0.008258   0.012430  -0.013429  -0.004854
   75  H  7  Z    0.000000  -0.000000  -0.000000  -0.000000   0.000000
   76  H  8  S   -0.126907  -0.130040   0.208943   0.198323  -0.007472
   77  H  8  S   -0.026961  -0.033339   0.069722   0.055695  -0.006089
   78  H  8  X    0.007786   0.012779  -0.011937  -0.012428   0.005515
   79  H  8  Y    0.013403   0.008258  -0.012430  -0.013429  -0.004854
   80  H  8  Z    0.000000  -0.000000  -0.000000  -0.000000   0.000000

                     11         12         13         14         15
                   -0.5122    -0.5050    -0.4639    -0.2275     0.0492
                     B3U        B2U        B1U        B3G        B2G 
    1  C  1  S    0.002945   0.001990  -0.000000  -0.000000   0.000000
    2  C  1  S    0.049436   0.054102  -0.000000  -0.000000   0.000000
    3  C  1  S    0.058222   0.063249  -0.000000  -0.000000   0.000000
    4  C  1  X    0.039653   0.283894  -0.000000  -0.000000   0.000000
    5  C  1  Y    0.282109   0.037452  -0.000000  -0.000000   0.000000
    6  C  1  Z    0.000000   0.000000   0.262372   0.287968   0.260590
    7  C  1  X    0.021490   0.133380  -0.000000  -0.000000   0.000000
    8  C  1  Y    0.123957   0.019945  -0.000000  -0.000000   0.000000
    9  C  1  Z    0.000000   0.000000   0.165154   0.322232   0.353816
   10  C  1 XX   -0.017238   0.014634  -0.000000  -0.000000   0.000000
   11  C  1 YY    0.019556  -0.015813  -0.000000  -0.000000   0.000000
   12  C  1 ZZ   -0.002318   0.001179  -0.000000  -0.000000   0.000000
   13  C  1 XY   -0.020336  -0.015594  -0.000000  -0.000000   0.000000
   14  C  1 XZ    0.000000   0.000000   0.023674   0.022250  -0.019256
   15  C  1 YZ    0.000000   0.000000   0.015531  -0.014338   0.014763
   16  C  2  S   -0.002945   0.001990  -0.000000  -0.000000   0.000000
   17  C  2  S   -0.049436   0.054102  -0.000000  -0.000000   0.000000
   18  C  2  S   -0.058222   0.063249  -0.000000  -0.000000   0.000000
   19  C  2  X    0.039653  -0.283894  -0.000000  -0.000000   0.000000
   20  C  2  Y   -0.282109   0.037452  -0.000000  -0.000000   0.000000
   21  C  2  Z    0.000000   0.000000   0.262372   0.287968  -0.260590
   22  C  2  X    0.021490  -0.133380  -0.000000  -0.000000   0.000000
   23  C  2  Y   -0.123957   0.019945  -0.000000  -0.000000   0.000000
   24  C  2  Z    0.000000   0.000000   0.165154   0.322232  -0.353816
   25  C  2 XX    0.017238   0.014634  -0.000000  -0.000000   0.000000
   26  C  2 YY   -0.019556  -0.015813  -0.000000  -0.000000   0.000000
   27  C  2 ZZ    0.002318   0.001179  -0.000000  -0.000000   0.000000
   28  C  2 XY   -0.020336   0.015594  -0.000000  -0.000000   0.000000
   29  C  2 XZ    0.000000   0.000000  -0.023674  -0.022250  -0.019256
   30  C  2 YZ    0.000000   0.000000   0.015531  -0.014338  -0.014763
   31  C  3  S    0.002945  -0.001990  -0.000000  -0.000000   0.000000
   32  C  3  S    0.049436  -0.054102  -0.000000  -0.000000   0.000000
   33  C  3  S    0.058222  -0.063249  -0.000000  -0.000000   0.000000
   34  C  3  X    0.039653  -0.283894  -0.000000  -0.000000   0.000000
   35  C  3  Y   -0.282109   0.037452  -0.000000  -0.000000   0.000000
   36  C  3  Z    0.000000   0.000000   0.262372  -0.287968   0.260590
   37  C  3  X    0.021490  -0.133380  -0.000000  -0.000000   0.000000
   38  C  3  Y   -0.123957   0.019945  -0.000000  -0.000000   0.000000
   39  C  3  Z    0.000000   0.000000   0.165154  -0.322232   0.353816
   40  C  3 XX   -0.017238  -0.014634  -0.000000  -0.000000   0.000000
   41  C  3 YY    0.019556   0.015813  -0.000000  -0.000000   0.000000
   42  C  3 ZZ   -0.002318  -0.001179  -0.000000  -0.000000   0.000000
   43  C  3 XY    0.020336  -0.015594  -0.000000  -0.000000   0.000000
   44  C  3 XZ    0.000000   0.000000   0.023674  -0.022250  -0.019256
   45  C  3 YZ    0.000000   0.000000  -0.015531  -0.014338  -0.014763
   46  C  4  S   -0.002945  -0.001990  -0.000000  -0.000000   0.000000
   47  C  4  S   -0.049436  -0.054102  -0.000000  -0.000000   0.000000
   48  C  4  S   -0.058222  -0.063249  -0.000000  -0.000000   0.000000
   49  C  4  X    0.039653   0.283894  -0.000000  -0.000000   0.000000
   50  C  4  Y    0.282109   0.037452  -0.000000  -0.000000   0.000000
   51  C  4  Z    0.000000   0.000000   0.262372  -0.287968  -0.260590
   52  C  4  X    0.021490   0.133380  -0.000000  -0.000000   0.000000
   53  C  4  Y    0.123957   0.019945  -0.000000  -0.000000   0.000000
   54  C  4  Z    0.000000   0.000000   0.165154  -0.322232  -0.353816
   55  C  4 XX    0.017238  -0.014634  -0.000000  -0.000000   0.000000
   56  C  4 YY   -0.019556   0.015813  -0.000000  -0.000000   0.000000
   57  C  4 ZZ    0.002318  -0.001179  -0.000000  -0.000000   0.000000
   58  C  4 XY    0.020336   0.015594  -0.000000  -0.000000   0.000000
   59  C  4 XZ    0.000000   0.000000  -0.023674   0.022250  -0.019256
   60  C  4 YZ    0.000000   0.000000  -0.015531  -0.014338   0.014763
   61  H  5  S   -0.183931  -0.180411  -0.000000  -0.000000   0.000000
   62  H  5  S   -0.081349  -0.077652  -0.000000  -0.000000   0.000000
   63  H  5  X   -0.010596  -0.002901  -0.000000  -0.000000   0.000000
   64  H  5  Y   -0.003762  -0.011655  -0.000000  -0.000000   0.000000
   65  H  5  Z    0.000000   0.000000   0.010757   0.012025   0.013591
   66  H  6  S    0.183931  -0.180411  -0.000000  -0.000000   0.000000
   67  H  6  S    0.081349  -0.077652  -0.000000  -0.000000   0.000000
   68  H  6  X   -0.010596   0.002901  -0.000000  -0.000000   0.000000
   69  H  6  Y    0.003762  -0.011655  -0.000000  -0.000000   0.000000
   70  H  6  Z    0.000000   0.000000   0.010757   0.012025  -0.013591
   71  H  7  S   -0.183931   0.180411  -0.000000  -0.000000   0.000000
   72  H  7  S   -0.081349   0.077652  -0.000000  -0.000000   0.000000
   73  H  7  X   -0.010596   0.002901  -0.000000  -0.000000   0.000000
   74  H  7  Y    0.003762  -0.011655  -0.000000  -0.000000   0.000000
   75  H  7  Z    0.000000   0.000000   0.010757  -0.012025   0.013591
   76  H  8  S    0.183931   0.180411  -0.000000  -0.000000   0.000000
   77  H  8  S    0.081349   0.077652  -0.000000  -0.000000   0.000000
   78  H  8  X   -0.010596  -0.002901  -0.000000  -0.000000   0.000000
   79  H  8  Y   -0.003762  -0.011655  -0.000000  -0.000000   0.000000
   80  H  8  Z    0.000000   0.000000   0.010757  -0.012025  -0.013591

                     16         17         18         19         20
                    0.2090     0.2238     0.2277     0.2282     0.2508
                     AG         B1G        B2U        B3U        AU  
    1  C  1  S    0.022107  -0.031668   0.019372   0.020540  -0.000000
    2  C  1  S   -0.036048  -0.159115  -0.064132  -0.062350  -0.000000
    3  C  1  S   -0.834494   1.203252  -0.872621  -0.903221  -0.000000
    4  C  1  X    0.090839   0.049437   0.103344   0.022211  -0.000000
    5  C  1  Y    0.090491   0.041505   0.013460   0.097756  -0.000000
    6  C  1  Z   -0.000000   0.000000   0.000000   0.000000   0.273637
    7  C  1  X    0.295750   1.321392   0.600599   0.254413  -0.000000
    8  C  1  Y    0.301056   1.323937   0.287087   0.600545  -0.000000
    9  C  1  Z   -0.000000   0.000000   0.000000   0.000000   0.700608
   10  C  1 XX   -0.000894   0.014235  -0.007852  -0.000095  -0.000000
   11  C  1 YY    0.001423   0.018237   0.004643  -0.005003  -0.000000
   12  C  1 ZZ   -0.000530  -0.032472   0.003210   0.005098  -0.000000
   13  C  1 XY    0.004715   0.005713  -0.013933  -0.015589  -0.000000
   14  C  1 XZ   -0.000000   0.000000   0.000000   0.000000  -0.016976
   15  C  1 YZ   -0.000000   0.000000   0.000000   0.000000  -0.009979
   16  C  2  S    0.022107   0.031668   0.019372  -0.020540  -0.000000
   17  C  2  S   -0.036048   0.159115  -0.064132   0.062350  -0.000000
   18  C  2  S   -0.834494  -1.203252  -0.872621   0.903221  -0.000000
   19  C  2  X   -0.090839   0.049437  -0.103344   0.022211  -0.000000
   20  C  2  Y    0.090491  -0.041505   0.013460  -0.097756  -0.000000
   21  C  2  Z   -0.000000   0.000000   0.000000   0.000000  -0.273637
   22  C  2  X   -0.295750   1.321392  -0.600599   0.254413  -0.000000
   23  C  2  Y    0.301056  -1.323937   0.287087  -0.600545  -0.000000
   24  C  2  Z   -0.000000   0.000000   0.000000   0.000000  -0.700608
   25  C  2 XX   -0.000894  -0.014235  -0.007852   0.000095  -0.000000
   26  C  2 YY    0.001423  -0.018237   0.004643   0.005003  -0.000000
   27  C  2 ZZ   -0.000530   0.032472   0.003210  -0.005098  -0.000000
   28  C  2 XY   -0.004715   0.005713   0.013933  -0.015589  -0.000000
   29  C  2 XZ   -0.000000   0.000000   0.000000   0.000000  -0.016976
   30  C  2 YZ   -0.000000   0.000000   0.000000   0.000000   0.009979
   31  C  3  S    0.022107   0.031668  -0.019372   0.020540  -0.000000
   32  C  3  S   -0.036048   0.159115   0.064132  -0.062350  -0.000000
   33  C  3  S   -0.834494  -1.203252   0.872621  -0.903221  -0.000000
   34  C  3  X    0.090839  -0.049437  -0.103344   0.022211  -0.000000
   35  C  3  Y   -0.090491   0.041505   0.013460  -0.097756  -0.000000
   36  C  3  Z   -0.000000   0.000000   0.000000   0.000000  -0.273637
   37  C  3  X    0.295750  -1.321392  -0.600599   0.254413  -0.000000
   38  C  3  Y   -0.301056   1.323937   0.287087  -0.600545  -0.000000
   39  C  3  Z   -0.000000   0.000000   0.000000   0.000000  -0.700608
   40  C  3 XX   -0.000894  -0.014235   0.007852  -0.000095  -0.000000
   41  C  3 YY    0.001423  -0.018237  -0.004643  -0.005003  -0.000000
   42  C  3 ZZ   -0.000530   0.032472  -0.003210   0.005098  -0.000000
   43  C  3 XY   -0.004715   0.005713  -0.013933   0.015589  -0.000000
   44  C  3 XZ   -0.000000   0.000000   0.000000   0.000000   0.016976
   45  C  3 YZ   -0.000000   0.000000   0.000000   0.000000  -0.009979
   46  C  4  S    0.022107  -0.031668  -0.019372  -0.020540  -0.000000
   47  C  4  S   -0.036048  -0.159115   0.064132   0.062350  -0.000000
   48  C  4  S   -0.834494   1.203252   0.872621   0.903221  -0.000000
   49  C  4  X   -0.090839  -0.049437   0.103344   0.022211  -0.000000
   50  C  4  Y   -0.090491  -0.041505   0.013460   0.097756  -0.000000
   51  C  4  Z   -0.000000   0.000000   0.000000   0.000000   0.273637
   52  C  4  X   -0.295750  -1.321392   0.600599   0.254413  -0.000000
   53  C  4  Y   -0.301056  -1.323937   0.287087   0.600545  -0.000000
   54  C  4  Z   -0.000000   0.000000   0.000000   0.000000   0.700608
   55  C  4 XX   -0.000894   0.014235   0.007852   0.000095  -0.000000
   56  C  4 YY    0.001423   0.018237  -0.004643   0.005003  -0.000000
   57  C  4 ZZ   -0.000530  -0.032472  -0.003210  -0.005098  -0.000000
   58  C  4 XY    0.004715   0.005713   0.013933   0.015589  -0.000000
   59  C  4 XZ   -0.000000   0.000000   0.000000   0.000000   0.016976
   60  C  4 YZ   -0.000000   0.000000   0.000000   0.000000   0.009979
   61  H  5  S    0.021839   0.046927  -0.002488  -0.009834  -0.000000
   62  H  5  S    1.068191   1.605045   1.181761   1.172602  -0.000000
   63  H  5  X    0.007431  -0.003786   0.015551   0.009985  -0.000000
   64  H  5  Y    0.008477  -0.003845   0.009143   0.016031  -0.000000
   65  H  5  Z   -0.000000   0.000000   0.000000   0.000000   0.022381
   66  H  6  S    0.021839  -0.046927  -0.002488   0.009834  -0.000000
   67  H  6  S    1.068191  -1.605045   1.181761  -1.172602  -0.000000
   68  H  6  X   -0.007431  -0.003786  -0.015551   0.009985  -0.000000
   69  H  6  Y    0.008477   0.003845   0.009143  -0.016031  -0.000000
   70  H  6  Z   -0.000000   0.000000   0.000000   0.000000  -0.022381
   71  H  7  S    0.021839  -0.046927   0.002488  -0.009834  -0.000000
   72  H  7  S    1.068191  -1.605045  -1.181761   1.172602  -0.000000
   73  H  7  X    0.007431   0.003786  -0.015551   0.009985  -0.000000
   74  H  7  Y   -0.008477  -0.003845   0.009143  -0.016031  -0.000000
   75  H  7  Z   -0.000000   0.000000   0.000000   0.000000  -0.022381
   76  H  8  S    0.021839   0.046927   0.002488   0.009834  -0.000000
   77  H  8  S    1.068191   1.605045  -1.181761  -1.172602  -0.000000
   78  H  8  X   -0.007431   0.003786   0.015551   0.009985  -0.000000
   79  H  8  Y   -0.008477   0.003845   0.009143   0.016031  -0.000000
   80  H  8  Z   -0.000000   0.000000   0.000000   0.000000   0.022381

                     21         22         23         24         25
                    0.3497     0.3575     0.4741     0.5288     0.5958
                     B3U        B2U        B1G        AG         B1G 
    1  C  1  S   -0.031886  -0.035623  -0.003055   0.123596  -0.092314
    2  C  1  S    0.053307   0.046648   0.000969   0.244557   0.072714
    3  C  1  S    1.192974   1.212178   0.143830  -0.169751   5.091187
    4  C  1  X    0.156862   0.036212  -0.171341   0.060633   0.025742
    5  C  1  Y    0.047645   0.174877   0.181482   0.100175   0.028869
    6  C  1  Z    0.000000   0.000000  -0.000000   0.000000   0.000000
    7  C  1  X    1.436413   0.115260  -1.324647  -0.010888   2.704433
    8  C  1  Y    0.120780   1.420880   1.470783  -0.058663   2.544490
    9  C  1  Z    0.000000   0.000000  -0.000000   0.000000   0.000000
   10  C  1 XX    0.002048   0.011654  -0.007632   0.034032   0.002310
   11  C  1 YY    0.014463   0.002722   0.008518   0.043073  -0.003255
   12  C  1 ZZ   -0.016511  -0.014376  -0.000885  -0.077106   0.000944
   13  C  1 XY    0.009025   0.005425  -0.006211   0.124839  -0.021806
   14  C  1 XZ    0.000000   0.000000  -0.000000   0.000000   0.000000
   15  C  1 YZ    0.000000   0.000000  -0.000000   0.000000   0.000000
   16  C  2  S    0.031886  -0.035623   0.003055   0.123596   0.092314
   17  C  2  S   -0.053307   0.046648  -0.000969   0.244557  -0.072714
   18  C  2  S   -1.192974   1.212178  -0.143830  -0.169751  -5.091187
   19  C  2  X    0.156862  -0.036212  -0.171341  -0.060633   0.025742
   20  C  2  Y   -0.047645   0.174877  -0.181482   0.100175  -0.028869
   21  C  2  Z    0.000000   0.000000  -0.000000   0.000000   0.000000
   22  C  2  X    1.436413  -0.115260  -1.324647   0.010888   2.704433
   23  C  2  Y   -0.120780   1.420880  -1.470783  -0.058663  -2.544490
   24  C  2  Z    0.000000   0.000000  -0.000000   0.000000   0.000000
   25  C  2 XX   -0.002048   0.011654   0.007632   0.034032  -0.002310
   26  C  2 YY   -0.014463   0.002722  -0.008518   0.043073   0.003255
   27  C  2 ZZ    0.016511  -0.014376   0.000885  -0.077106  -0.000944
   28  C  2 XY    0.009025  -0.005425  -0.006211  -0.124839  -0.021806
   29  C  2 XZ    0.000000   0.000000  -0.000000   0.000000   0.000000
   30  C  2 YZ    0.000000   0.000000  -0.000000   0.000000   0.000000
   31  C  3  S   -0.031886   0.035623   0.003055   0.123596   0.092314
   32  C  3  S    0.053307  -0.046648  -0.000969   0.244557  -0.072714
   33  C  3  S    1.192974  -1.212178  -0.143830  -0.169751  -5.091187
   34  C  3  X    0.156862  -0.036212   0.171341   0.060633  -0.025742
   35  C  3  Y   -0.047645   0.174877   0.181482  -0.100175   0.028869
   36  C  3  Z    0.000000   0.000000  -0.000000   0.000000   0.000000
   37  C  3  X    1.436413  -0.115260   1.324647  -0.010888  -2.704433
   38  C  3  Y   -0.120780   1.420880   1.470783   0.058663   2.544490
   39  C  3  Z    0.000000   0.000000  -0.000000   0.000000   0.000000
   40  C  3 XX    0.002048  -0.011654   0.007632   0.034032  -0.002310
   41  C  3 YY    0.014463  -0.002722  -0.008518   0.043073   0.003255
   42  C  3 ZZ   -0.016511   0.014376   0.000885  -0.077106  -0.000944
   43  C  3 XY   -0.009025   0.005425  -0.006211  -0.124839  -0.021806
   44  C  3 XZ    0.000000   0.000000  -0.000000   0.000000   0.000000
   45  C  3 YZ    0.000000   0.000000  -0.000000   0.000000   0.000000
   46  C  4  S    0.031886   0.035623  -0.003055   0.123596  -0.092314
   47  C  4  S   -0.053307  -0.046648   0.000969   0.244557   0.072714
   48  C  4  S   -1.192974  -1.212178   0.143830  -0.169751   5.091187
   49  C  4  X    0.156862   0.036212   0.171341  -0.060633  -0.025742
   50  C  4  Y    0.047645   0.174877  -0.181482  -0.100175  -0.028869
   51  C  4  Z    0.000000   0.000000  -0.000000   0.000000   0.000000
   52  C  4  X    1.436413   0.115260   1.324647   0.010888  -2.704433
   53  C  4  Y    0.120780   1.420880  -1.470783   0.058663  -2.544490
   54  C  4  Z    0.000000   0.000000  -0.000000   0.000000   0.000000
   55  C  4 XX   -0.002048  -0.011654  -0.007632   0.034032   0.002310
   56  C  4 YY   -0.014463  -0.002722   0.008518   0.043073  -0.003255
   57  C  4 ZZ    0.016511   0.014376  -0.000885  -0.077106   0.000944
   58  C  4 XY   -0.009025  -0.005425  -0.006211   0.124839  -0.021806
   59  C  4 XZ    0.000000   0.000000  -0.000000   0.000000   0.000000
   60  C  4 YZ    0.000000   0.000000  -0.000000   0.000000   0.000000
   61  H  5  S    0.016034  -0.006158  -0.015217   0.427747  -0.249651
   62  H  5  S    0.748229   0.738631   0.052455  -0.310992   1.530781
   63  H  5  X    0.008783  -0.014078  -0.016705  -0.048881   0.029669
   64  H  5  Y   -0.013116   0.011350   0.019814  -0.048947   0.026313
   65  H  5  Z    0.000000   0.000000  -0.000000   0.000000   0.000000
   66  H  6  S   -0.016034  -0.006158   0.015217   0.427747   0.249651
   67  H  6  S   -0.748229   0.738631  -0.052455  -0.310992  -1.530781
   68  H  6  X    0.008783   0.014078  -0.016705   0.048881   0.029669
   69  H  6  Y    0.013116   0.011350  -0.019814  -0.048947  -0.026313
   70  H  6  Z    0.000000   0.000000  -0.000000   0.000000   0.000000
   71  H  7  S    0.016034   0.006158   0.015217   0.427747   0.249651
   72  H  7  S    0.748229  -0.738631  -0.052455  -0.310992  -1.530781
   73  H  7  X    0.008783   0.014078   0.016705  -0.048881  -0.029669
   74  H  7  Y    0.013116   0.011350   0.019814   0.048947   0.026313
   75  H  7  Z    0.000000   0.000000  -0.000000   0.000000   0.000000
   76  H  8  S   -0.016034   0.006158  -0.015217   0.427747  -0.249651
   77  H  8  S   -0.748229  -0.738631   0.052455  -0.310992   1.530781
   78  H  8  X    0.008783  -0.014078   0.016705   0.048881  -0.029669
   79  H  8  Y   -0.013116   0.011350  -0.019814   0.048947  -0.026313
   80  H  8  Z    0.000000   0.000000  -0.000000   0.000000   0.000000

                     26         27         28         29         30
                    0.5982     0.6839     0.6864     0.6911     0.7536
                     AG         B2U        B1U        B3U        B3G 
    1  C  1  S   -0.000506   0.047125  -0.000000   0.052996   0.000000
    2  C  1  S    0.001190   0.020308  -0.000000   0.022529   0.000000
    3  C  1  S   -0.035633   0.085803  -0.000000   0.000228   0.000000
    4  C  1  X   -0.285658   0.315948  -0.000000  -0.230590   0.000000
    5  C  1  Y    0.263805  -0.220256  -0.000000   0.309413   0.000000
    6  C  1  Z   -0.000000   0.000000   0.461892  -0.000000  -0.500884
    7  C  1  X    0.364871  -0.288233  -0.000000   0.168592   0.000000
    8  C  1  Y   -0.323009   0.208013  -0.000000  -0.270195   0.000000
    9  C  1  Z   -0.000000   0.000000  -0.367117  -0.000000   0.645023
   10  C  1 XX   -0.059435   0.017125  -0.000000   0.094433   0.000000
   11  C  1 YY    0.052789   0.093248  -0.000000   0.014833   0.000000
   12  C  1 ZZ    0.006646  -0.110372  -0.000000  -0.109266   0.000000
   13  C  1 XY   -0.014322   0.009444  -0.000000   0.003314   0.000000
   14  C  1 XZ   -0.000000   0.000000   0.089959  -0.000000  -0.070090
   15  C  1 YZ   -0.000000   0.000000   0.084886  -0.000000   0.021939
   16  C  2  S   -0.000506   0.047125  -0.000000  -0.052996   0.000000
   17  C  2  S    0.001190   0.020308  -0.000000  -0.022529   0.000000
   18  C  2  S   -0.035633   0.085803  -0.000000  -0.000228   0.000000
   19  C  2  X    0.285658  -0.315948  -0.000000  -0.230590   0.000000
   20  C  2  Y    0.263805  -0.220256  -0.000000  -0.309413   0.000000
   21  C  2  Z   -0.000000   0.000000   0.461892  -0.000000  -0.500884
   22  C  2  X   -0.364871   0.288233  -0.000000   0.168592   0.000000
   23  C  2  Y   -0.323009   0.208013  -0.000000   0.270195   0.000000
   24  C  2  Z   -0.000000   0.000000  -0.367117  -0.000000   0.645023
   25  C  2 XX   -0.059435   0.017125  -0.000000  -0.094433   0.000000
   26  C  2 YY    0.052789   0.093248  -0.000000  -0.014833   0.000000
   27  C  2 ZZ    0.006646  -0.110372  -0.000000   0.109266   0.000000
   28  C  2 XY    0.014322  -0.009444  -0.000000   0.003314   0.000000
   29  C  2 XZ   -0.000000   0.000000  -0.089959  -0.000000   0.070090
   30  C  2 YZ   -0.000000   0.000000   0.084886  -0.000000   0.021939
   31  C  3  S   -0.000506  -0.047125  -0.000000   0.052996   0.000000
   32  C  3  S    0.001190  -0.020308  -0.000000   0.022529   0.000000
   33  C  3  S   -0.035633  -0.085803  -0.000000   0.000228   0.000000
   34  C  3  X   -0.285658  -0.315948  -0.000000  -0.230590   0.000000
   35  C  3  Y   -0.263805  -0.220256  -0.000000  -0.309413   0.000000
   36  C  3  Z   -0.000000   0.000000   0.461892  -0.000000   0.500884
   37  C  3  X    0.364871   0.288233  -0.000000   0.168592   0.000000
   38  C  3  Y    0.323009   0.208013  -0.000000   0.270195   0.000000
   39  C  3  Z   -0.000000   0.000000  -0.367117  -0.000000  -0.645023
   40  C  3 XX   -0.059435  -0.017125  -0.000000   0.094433   0.000000
   41  C  3 YY    0.052789  -0.093248  -0.000000   0.014833   0.000000
   42  C  3 ZZ    0.006646   0.110372  -0.000000  -0.109266   0.000000
   43  C  3 XY    0.014322   0.009444  -0.000000  -0.003314   0.000000
   44  C  3 XZ   -0.000000   0.000000   0.089959  -0.000000   0.070090
   45  C  3 YZ   -0.000000   0.000000  -0.084886  -0.000000   0.021939
   46  C  4  S   -0.000506  -0.047125  -0.000000  -0.052996   0.000000
   47  C  4  S    0.001190  -0.020308  -0.000000  -0.022529   0.000000
   48  C  4  S   -0.035633  -0.085803  -0.000000  -0.000228   0.000000
   49  C  4  X    0.285658   0.315948  -0.000000  -0.230590   0.000000
   50  C  4  Y   -0.263805  -0.220256  -0.000000   0.309413   0.000000
   51  C  4  Z   -0.000000   0.000000   0.461892  -0.000000   0.500884
   52  C  4  X   -0.364871  -0.288233  -0.000000   0.168592   0.000000
   53  C  4  Y    0.323009   0.208013  -0.000000  -0.270195   0.000000
   54  C  4  Z   -0.000000   0.000000  -0.367117  -0.000000  -0.645023
   55  C  4 XX   -0.059435  -0.017125  -0.000000  -0.094433   0.000000
   56  C  4 YY    0.052789  -0.093248  -0.000000  -0.014833   0.000000
   57  C  4 ZZ    0.006646   0.110372  -0.000000   0.109266   0.000000
   58  C  4 XY   -0.014322  -0.009444  -0.000000  -0.003314   0.000000
   59  C  4 XZ   -0.000000   0.000000  -0.089959  -0.000000  -0.070090
   60  C  4 YZ   -0.000000   0.000000  -0.084886  -0.000000   0.021939
   61  H  5  S   -0.024478   0.369023  -0.000000   0.369232   0.000000
   62  H  5  S    0.055743  -0.240660  -0.000000  -0.231218   0.000000
   63  H  5  X    0.028621  -0.037012  -0.000000  -0.065043   0.000000
   64  H  5  Y   -0.016618  -0.062683  -0.000000  -0.032098   0.000000
   65  H  5  Z   -0.000000   0.000000   0.011662  -0.000000   0.002092
   66  H  6  S   -0.024478   0.369023  -0.000000  -0.369232   0.000000
   67  H  6  S    0.055743  -0.240660  -0.000000   0.231218   0.000000
   68  H  6  X   -0.028621   0.037012  -0.000000  -0.065043   0.000000
   69  H  6  Y   -0.016618  -0.062683  -0.000000   0.032098   0.000000
   70  H  6  Z   -0.000000   0.000000   0.011662  -0.000000   0.002092
   71  H  7  S   -0.024478  -0.369023  -0.000000   0.369232   0.000000
   72  H  7  S    0.055743   0.240660  -0.000000  -0.231218   0.000000
   73  H  7  X    0.028621   0.037012  -0.000000  -0.065043   0.000000
   74  H  7  Y    0.016618  -0.062683  -0.000000   0.032098   0.000000
   75  H  7  Z   -0.000000   0.000000   0.011662  -0.000000  -0.002092
   76  H  8  S   -0.024478  -0.369023  -0.000000  -0.369232   0.000000
   77  H  8  S    0.055743   0.240660  -0.000000   0.231218   0.000000
   78  H  8  X   -0.028621  -0.037012  -0.000000  -0.065043   0.000000
   79  H  8  Y    0.016618  -0.062683  -0.000000  -0.032098   0.000000
   80  H  8  Z   -0.000000   0.000000   0.011662  -0.000000  -0.002092

                     31         32         33         34         35
                    0.7622     0.8116     0.8425     0.8484     0.8585
                     B2G        AG         AU         B3U        B2U 
    1  C  1  S   -0.000000  -0.131403   0.000000  -0.056889  -0.057519
    2  C  1  S   -0.000000  -0.279321   0.000000  -0.085035  -0.085291
    3  C  1  S   -0.000000  -0.455972   0.000000   0.928383   0.936263
    4  C  1  X   -0.000000  -0.210488   0.000000  -0.426810  -0.176319
    5  C  1  Y   -0.000000  -0.206905   0.000000  -0.180352  -0.434328
    6  C  1  Z   -0.517165   0.000000  -0.544329   0.000000   0.000000
    7  C  1  X   -0.000000   0.547567   0.000000   1.708337   0.792676
    8  C  1  Y   -0.000000   0.551825   0.000000   0.795768   1.714046
    9  C  1  Z    0.629981   0.000000   1.103420   0.000000   0.000000
   10  C  1 XX   -0.000000  -0.081954   0.000000   0.147606  -0.097325
   11  C  1 YY   -0.000000  -0.083356   0.000000  -0.100843   0.142970
   12  C  1 ZZ   -0.000000   0.165310   0.000000  -0.046763  -0.045645
   13  C  1 XY   -0.000000   0.027290   0.000000  -0.096445  -0.090439
   14  C  1 XZ    0.027093   0.000000   0.049739   0.000000   0.000000
   15  C  1 YZ   -0.066323   0.000000   0.046381   0.000000   0.000000
   16  C  2  S   -0.000000  -0.131403   0.000000   0.056889  -0.057519
   17  C  2  S   -0.000000  -0.279321   0.000000   0.085035  -0.085291
   18  C  2  S   -0.000000  -0.455972   0.000000  -0.928383   0.936263
   19  C  2  X   -0.000000   0.210488   0.000000  -0.426810   0.176319
   20  C  2  Y   -0.000000  -0.206905   0.000000   0.180352  -0.434328
   21  C  2  Z    0.517165   0.000000   0.544329   0.000000   0.000000
   22  C  2  X   -0.000000  -0.547567   0.000000   1.708337  -0.792676
   23  C  2  Y   -0.000000   0.551825   0.000000  -0.795768   1.714046
   24  C  2  Z   -0.629981   0.000000  -1.103420   0.000000   0.000000
   25  C  2 XX   -0.000000  -0.081954   0.000000  -0.147606  -0.097325
   26  C  2 YY   -0.000000  -0.083356   0.000000   0.100843   0.142970
   27  C  2 ZZ   -0.000000   0.165310   0.000000   0.046763  -0.045645
   28  C  2 XY   -0.000000  -0.027290   0.000000  -0.096445   0.090439
   29  C  2 XZ    0.027093   0.000000   0.049739   0.000000   0.000000
   30  C  2 YZ    0.066323   0.000000  -0.046381   0.000000   0.000000
   31  C  3  S   -0.000000  -0.131403   0.000000  -0.056889   0.057519
   32  C  3  S   -0.000000  -0.279321   0.000000  -0.085035   0.085291
   33  C  3  S   -0.000000  -0.455972   0.000000   0.928383  -0.936263
   34  C  3  X   -0.000000  -0.210488   0.000000  -0.426810   0.176319
   35  C  3  Y   -0.000000   0.206905   0.000000   0.180352  -0.434328
   36  C  3  Z   -0.517165   0.000000   0.544329   0.000000   0.000000
   37  C  3  X   -0.000000   0.547567   0.000000   1.708337  -0.792676
   38  C  3  Y   -0.000000  -0.551825   0.000000  -0.795768   1.714046
   39  C  3  Z    0.629981   0.000000  -1.103420   0.000000   0.000000
   40  C  3 XX   -0.000000  -0.081954   0.000000   0.147606   0.097325
   41  C  3 YY   -0.000000  -0.083356   0.000000  -0.100843  -0.142970
   42  C  3 ZZ   -0.000000   0.165310   0.000000  -0.046763   0.045645
   43  C  3 XY   -0.000000  -0.027290   0.000000   0.096445  -0.090439
   44  C  3 XZ    0.027093   0.000000  -0.049739   0.000000   0.000000
   45  C  3 YZ    0.066323   0.000000   0.046381   0.000000   0.000000
   46  C  4  S   -0.000000  -0.131403   0.000000   0.056889   0.057519
   47  C  4  S   -0.000000  -0.279321   0.000000   0.085035   0.085291
   48  C  4  S   -0.000000  -0.455972   0.000000  -0.928383  -0.936263
   49  C  4  X   -0.000000   0.210488   0.000000  -0.426810  -0.176319
   50  C  4  Y   -0.000000   0.206905   0.000000  -0.180352  -0.434328
   51  C  4  Z    0.517165   0.000000  -0.544329   0.000000   0.000000
   52  C  4  X   -0.000000  -0.547567   0.000000   1.708337   0.792676
   53  C  4  Y   -0.000000  -0.551825   0.000000   0.795768   1.714046
   54  C  4  Z   -0.629981   0.000000   1.103420   0.000000   0.000000
   55  C  4 XX   -0.000000  -0.081954   0.000000  -0.147606   0.097325
   56  C  4 YY   -0.000000  -0.083356   0.000000   0.100843  -0.142970
   57  C  4 ZZ   -0.000000   0.165310   0.000000   0.046763   0.045645
   58  C  4 XY   -0.000000   0.027290   0.000000   0.096445   0.090439
   59  C  4 XZ    0.027093   0.000000  -0.049739   0.000000   0.000000
   60  C  4 YZ   -0.066323   0.000000  -0.046381   0.000000   0.000000
   61  H  5  S   -0.000000   0.300221   0.000000  -0.110984  -0.105645
   62  H  5  S   -0.000000   0.393761   0.000000   1.111554   1.103771
   63  H  5  X   -0.000000   0.033104   0.000000   0.073372   0.070518
   64  H  5  Y   -0.000000   0.035170   0.000000   0.069493   0.071972
   65  H  5  Z   -0.001902   0.000000   0.013679   0.000000   0.000000
   66  H  6  S   -0.000000   0.300221   0.000000   0.110984  -0.105645
   67  H  6  S   -0.000000   0.393761   0.000000  -1.111554   1.103771
   68  H  6  X   -0.000000  -0.033104   0.000000   0.073372  -0.070518
   69  H  6  Y   -0.000000   0.035170   0.000000  -0.069493   0.071972
   70  H  6  Z    0.001902   0.000000  -0.013679   0.000000   0.000000
   71  H  7  S   -0.000000   0.300221   0.000000  -0.110984   0.105645
   72  H  7  S   -0.000000   0.393761   0.000000   1.111554  -1.103771
   73  H  7  X   -0.000000   0.033104   0.000000   0.073372  -0.070518
   74  H  7  Y   -0.000000  -0.035170   0.000000  -0.069493   0.071972
   75  H  7  Z   -0.001902   0.000000  -0.013679   0.000000   0.000000
   76  H  8  S   -0.000000   0.300221   0.000000   0.110984   0.105645
   77  H  8  S   -0.000000   0.393761   0.000000  -1.111554  -1.103771
   78  H  8  X   -0.000000  -0.033104   0.000000   0.073372   0.070518
   79  H  8  Y   -0.000000  -0.035170   0.000000   0.069493   0.071972
   80  H  8  Z    0.001902   0.000000   0.013679   0.000000   0.000000

                     36         37         38         39         40
                    0.9227     0.9393     0.9521     1.0635     1.0723
                     B1G        AG         B1G        B2U        B1U 
    1  C  1  S    0.006999  -0.286662  -0.000828  -0.349386  -0.000000
    2  C  1  S    0.010134  -0.677424   0.000594  -0.771817  -0.000000
    3  C  1  S    0.291619   1.429003   3.897430   2.297670  -0.000000
    4  C  1  X   -0.388145   0.153958  -0.274272   0.200936  -0.000000
    5  C  1  Y    0.329688   0.170404  -0.349797  -0.054529  -0.000000
    6  C  1  Z    0.000000   0.000000  -0.000000  -0.000000  -0.208742
    7  C  1  X    1.924982  -0.514292   2.693980  -1.039418  -0.000000
    8  C  1  Y   -1.402444  -0.531000   3.062607   0.149633  -0.000000
    9  C  1  Z    0.000000   0.000000  -0.000000  -0.000000   0.083699
   10  C  1 XX    0.217824  -0.019625   0.056211  -0.092033  -0.000000
   11  C  1 YY   -0.199313  -0.014068   0.096628   0.095394  -0.000000
   12  C  1 ZZ   -0.018511   0.033693  -0.152840  -0.003361  -0.000000
   13  C  1 XY    0.004051   0.151006   0.069147  -0.022172  -0.000000
   14  C  1 XZ    0.000000   0.000000  -0.000000  -0.000000   0.195290
   15  C  1 YZ    0.000000   0.000000  -0.000000  -0.000000   0.253412
   16  C  2  S   -0.006999  -0.286662   0.000828  -0.349386  -0.000000
   17  C  2  S   -0.010134  -0.677424  -0.000594  -0.771817  -0.000000
   18  C  2  S   -0.291619   1.429003  -3.897430   2.297670  -0.000000
   19  C  2  X   -0.388145  -0.153958  -0.274272  -0.200936  -0.000000
   20  C  2  Y   -0.329688   0.170404   0.349797  -0.054529  -0.000000
   21  C  2  Z    0.000000   0.000000  -0.000000  -0.000000  -0.208742
   22  C  2  X    1.924982   0.514292   2.693980   1.039418  -0.000000
   23  C  2  Y    1.402444  -0.531000  -3.062607   0.149633  -0.000000
   24  C  2  Z    0.000000   0.000000  -0.000000  -0.000000   0.083699
   25  C  2 XX   -0.217824  -0.019625  -0.056211  -0.092033  -0.000000
   26  C  2 YY    0.199313  -0.014068  -0.096628   0.095394  -0.000000
   27  C  2 ZZ    0.018511   0.033693   0.152840  -0.003361  -0.000000
   28  C  2 XY    0.004051  -0.151006   0.069147   0.022172  -0.000000
   29  C  2 XZ    0.000000   0.000000  -0.000000  -0.000000  -0.195290
   30  C  2 YZ    0.000000   0.000000  -0.000000  -0.000000   0.253412
   31  C  3  S   -0.006999  -0.286662   0.000828   0.349386  -0.000000
   32  C  3  S   -0.010134  -0.677424  -0.000594   0.771817  -0.000000
   33  C  3  S   -0.291619   1.429003  -3.897430  -2.297670  -0.000000
   34  C  3  X    0.388145   0.153958   0.274272  -0.200936  -0.000000
   35  C  3  Y    0.329688  -0.170404  -0.349797  -0.054529  -0.000000
   36  C  3  Z    0.000000   0.000000  -0.000000  -0.000000  -0.208742
   37  C  3  X   -1.924982  -0.514292  -2.693980   1.039418  -0.000000
   38  C  3  Y   -1.402444   0.531000   3.062607   0.149633  -0.000000
   39  C  3  Z    0.000000   0.000000  -0.000000  -0.000000   0.083699
   40  C  3 XX   -0.217824  -0.019625  -0.056211   0.092033  -0.000000
   41  C  3 YY    0.199313  -0.014068  -0.096628  -0.095394  -0.000000
   42  C  3 ZZ    0.018511   0.033693   0.152840   0.003361  -0.000000
   43  C  3 XY    0.004051  -0.151006   0.069147  -0.022172  -0.000000
   44  C  3 XZ    0.000000   0.000000  -0.000000  -0.000000   0.195290
   45  C  3 YZ    0.000000   0.000000  -0.000000  -0.000000  -0.253412
   46  C  4  S    0.006999  -0.286662  -0.000828   0.349386  -0.000000
   47  C  4  S    0.010134  -0.677424   0.000594   0.771817  -0.000000
   48  C  4  S    0.291619   1.429003   3.897430  -2.297670  -0.000000
   49  C  4  X    0.388145  -0.153958   0.274272   0.200936  -0.000000
   50  C  4  Y   -0.329688  -0.170404   0.349797  -0.054529  -0.000000
   51  C  4  Z    0.000000   0.000000  -0.000000  -0.000000  -0.208742
   52  C  4  X   -1.924982   0.514292  -2.693980  -1.039418  -0.000000
   53  C  4  Y    1.402444   0.531000  -3.062607   0.149633  -0.000000
   54  C  4  Z    0.000000   0.000000  -0.000000  -0.000000   0.083699
   55  C  4 XX    0.217824  -0.019625   0.056211   0.092033  -0.000000
   56  C  4 YY   -0.199313  -0.014068   0.096628  -0.095394  -0.000000
   57  C  4 ZZ   -0.018511   0.033693  -0.152840   0.003361  -0.000000
   58  C  4 XY    0.004051   0.151006   0.069147   0.022172  -0.000000
   59  C  4 XZ    0.000000   0.000000  -0.000000  -0.000000  -0.195290
   60  C  4 YZ    0.000000   0.000000  -0.000000  -0.000000  -0.253412
   61  H  5  S    0.046361  -0.008351   0.320431  -0.331599  -0.000000
   62  H  5  S    0.145594  -0.991305   1.544495  -0.688453  -0.000000
   63  H  5  X   -0.004244  -0.094856   0.015384  -0.094891  -0.000000
   64  H  5  Y    0.004330  -0.097073   0.016558  -0.024222  -0.000000
   65  H  5  Z    0.000000   0.000000  -0.000000  -0.000000  -0.157011
   66  H  6  S   -0.046361  -0.008351  -0.320431  -0.331599  -0.000000
   67  H  6  S   -0.145594  -0.991305  -1.544495  -0.688453  -0.000000
   68  H  6  X   -0.004244   0.094856   0.015384   0.094891  -0.000000
   69  H  6  Y   -0.004330  -0.097073  -0.016558  -0.024222  -0.000000
   70  H  6  Z    0.000000   0.000000  -0.000000  -0.000000  -0.157011
   71  H  7  S   -0.046361  -0.008351  -0.320431   0.331599  -0.000000
   72  H  7  S   -0.145594  -0.991305  -1.544495   0.688453  -0.000000
   73  H  7  X    0.004244  -0.094856  -0.015384   0.094891  -0.000000
   74  H  7  Y    0.004330   0.097073   0.016558  -0.024222  -0.000000
   75  H  7  Z    0.000000   0.000000  -0.000000  -0.000000  -0.157011
   76  H  8  S    0.046361  -0.008351   0.320431   0.331599  -0.000000
   77  H  8  S    0.145594  -0.991305   1.544495   0.688453  -0.000000
   78  H  8  X    0.004244   0.094856  -0.015384  -0.094891  -0.000000
   79  H  8  Y   -0.004330   0.097073  -0.016558  -0.024222  -0.000000
   80  H  8  Z    0.000000   0.000000  -0.000000  -0.000000  -0.157011

                     41         42         43         44         45
                    1.0756     1.1498     1.2238     1.2602     1.2614
                     B3U        B1U        B1G        B2U        B3U 
    1  C  1  S   -0.351225   0.000000   0.113824  -0.250014  -0.253602
    2  C  1  S   -0.774001   0.000000   0.366895  -0.496367  -0.501350
    3  C  1  S    2.328345   0.000000   2.370898   1.510462   1.530858
    4  C  1  X   -0.048004   0.000000   0.269686  -0.187725   0.059978
    5  C  1  Y    0.200717   0.000000   0.266006   0.059759  -0.188423
    6  C  1  Z   -0.000000  -0.028459   0.000000  -0.000000  -0.000000
    7  C  1  X    0.184450   0.000000   1.615887   1.349073   1.656480
    8  C  1  Y   -1.022937   0.000000   1.675692   1.632508   1.370383
    9  C  1  Z   -0.000000   0.009541   0.000000  -0.000000  -0.000000
   10  C  1 XX    0.104006   0.000000   0.004045  -0.163757   0.062928
   11  C  1 YY   -0.093319   0.000000   0.019889   0.058872  -0.160195
   12  C  1 ZZ   -0.010687   0.000000  -0.023934   0.104885   0.097267
   13  C  1 XY   -0.026669   0.000000   0.128711   0.187763   0.187089
   14  C  1 XZ   -0.000000   0.308226   0.000000  -0.000000  -0.000000
   15  C  1 YZ   -0.000000  -0.266063   0.000000  -0.000000  -0.000000
   16  C  2  S    0.351225   0.000000  -0.113824  -0.250014   0.253602
   17  C  2  S    0.774001   0.000000  -0.366895  -0.496367   0.501350
   18  C  2  S   -2.328345   0.000000  -2.370898   1.510462  -1.530858
   19  C  2  X   -0.048004   0.000000   0.269686   0.187725   0.059978
   20  C  2  Y   -0.200717   0.000000  -0.266006   0.059759   0.188423
   21  C  2  Z   -0.000000  -0.028459   0.000000  -0.000000  -0.000000
   22  C  2  X    0.184450   0.000000   1.615887  -1.349073   1.656480
   23  C  2  Y    1.022937   0.000000  -1.675692   1.632508  -1.370383
   24  C  2  Z   -0.000000   0.009541   0.000000  -0.000000  -0.000000
   25  C  2 XX   -0.104006   0.000000  -0.004045  -0.163757  -0.062928
   26  C  2 YY    0.093319   0.000000  -0.019889   0.058872   0.160195
   27  C  2 ZZ    0.010687   0.000000   0.023934   0.104885  -0.097267
   28  C  2 XY   -0.026669   0.000000   0.128711  -0.187763   0.187089
   29  C  2 XZ   -0.000000  -0.308226   0.000000  -0.000000  -0.000000
   30  C  2 YZ   -0.000000  -0.266063   0.000000  -0.000000  -0.000000
   31  C  3  S   -0.351225   0.000000  -0.113824   0.250014  -0.253602
   32  C  3  S   -0.774001   0.000000  -0.366895   0.496367  -0.501350
   33  C  3  S    2.328345   0.000000  -2.370898  -1.510462   1.530858
   34  C  3  X   -0.048004   0.000000  -0.269686   0.187725   0.059978
   35  C  3  Y   -0.200717   0.000000   0.266006   0.059759   0.188423
   36  C  3  Z   -0.000000  -0.028459   0.000000  -0.000000  -0.000000
   37  C  3  X    0.184450   0.000000  -1.615887  -1.349073   1.656480
   38  C  3  Y    1.022937   0.000000   1.675692   1.632508  -1.370383
   39  C  3  Z   -0.000000   0.009541   0.000000  -0.000000  -0.000000
   40  C  3 XX    0.104006   0.000000  -0.004045   0.163757   0.062928
   41  C  3 YY   -0.093319   0.000000  -0.019889  -0.058872  -0.160195
   42  C  3 ZZ   -0.010687   0.000000   0.023934  -0.104885   0.097267
   43  C  3 XY    0.026669   0.000000   0.128711   0.187763  -0.187089
   44  C  3 XZ   -0.000000   0.308226   0.000000  -0.000000  -0.000000
   45  C  3 YZ   -0.000000   0.266063   0.000000  -0.000000  -0.000000
   46  C  4  S    0.351225   0.000000   0.113824   0.250014   0.253602
   47  C  4  S    0.774001   0.000000   0.366895   0.496367   0.501350
   48  C  4  S   -2.328345   0.000000   2.370898  -1.510462  -1.530858
   49  C  4  X   -0.048004   0.000000  -0.269686  -0.187725   0.059978
   50  C  4  Y    0.200717   0.000000  -0.266006   0.059759  -0.188423
   51  C  4  Z   -0.000000  -0.028459   0.000000  -0.000000  -0.000000
   52  C  4  X    0.184450   0.000000  -1.615887   1.349073   1.656480
   53  C  4  Y   -1.022937   0.000000  -1.675692   1.632508   1.370383
   54  C  4  Z   -0.000000   0.009541   0.000000  -0.000000  -0.000000
   55  C  4 XX   -0.104006   0.000000   0.004045   0.163757  -0.062928
   56  C  4 YY    0.093319   0.000000   0.019889  -0.058872   0.160195
   57  C  4 ZZ    0.010687   0.000000  -0.023934  -0.104885  -0.097267
   58  C  4 XY    0.026669   0.000000   0.128711  -0.187763  -0.187089
   59  C  4 XZ   -0.000000  -0.308226   0.000000  -0.000000  -0.000000
   60  C  4 YZ   -0.000000   0.266063   0.000000  -0.000000  -0.000000
   61  H  5  S   -0.321674   0.000000   0.574340   0.449683   0.450299
   62  H  5  S   -0.674754   0.000000   0.570938   0.589341   0.603701
   63  H  5  X   -0.024536   0.000000  -0.113431  -0.026931  -0.137601
   64  H  5  Y   -0.099674   0.000000  -0.111212  -0.137310  -0.025976
   65  H  5  Z   -0.000000  -0.017670   0.000000  -0.000000  -0.000000
   66  H  6  S    0.321674   0.000000  -0.574340   0.449683  -0.450299
   67  H  6  S    0.674754   0.000000  -0.570938   0.589341  -0.603701
   68  H  6  X   -0.024536   0.000000  -0.113431   0.026931  -0.137601
   69  H  6  Y    0.099674   0.000000   0.111212  -0.137310   0.025976
   70  H  6  Z   -0.000000  -0.017670   0.000000  -0.000000  -0.000000
   71  H  7  S   -0.321674   0.000000  -0.574340  -0.449683   0.450299
   72  H  7  S   -0.674754   0.000000  -0.570938  -0.589341   0.603701
   73  H  7  X   -0.024536   0.000000   0.113431   0.026931  -0.137601
   74  H  7  Y    0.099674   0.000000  -0.111212  -0.137310   0.025976
   75  H  7  Z   -0.000000  -0.017670   0.000000  -0.000000  -0.000000
   76  H  8  S    0.321674   0.000000   0.574340  -0.449683  -0.450299
   77  H  8  S    0.674754   0.000000   0.570938  -0.589341  -0.603701
   78  H  8  X   -0.024536   0.000000   0.113431  -0.026931  -0.137601
   79  H  8  Y   -0.099674   0.000000   0.111212  -0.137310  -0.025976
   80  H  8  Z   -0.000000  -0.017670   0.000000  -0.000000  -0.000000

                     46         47         48         49         50
                    1.2989     1.2998     1.4928     1.5852     1.6863
                     B2G        B3G        AG         AG         B3U 
    1  C  1  S    0.000000  -0.000000  -0.058230   0.000648  -0.139636
    2  C  1  S    0.000000  -0.000000  -0.146761   0.002514  -0.293109
    3  C  1  S    0.000000  -0.000000  -0.248135   0.002836   0.248572
    4  C  1  X    0.000000  -0.000000   0.037627   0.146981   0.056799
    5  C  1  Y    0.000000  -0.000000   0.022426  -0.154124  -0.254485
    6  C  1  Z   -0.105289  -0.115927   0.000000   0.000000   0.000000
    7  C  1  X    0.000000  -0.000000   0.273198  -0.231772   0.644818
    8  C  1  Y    0.000000  -0.000000   0.289714   0.223658   1.114123
    9  C  1  Z    0.139427   0.145137   0.000000   0.000000   0.000000
   10  C  1 XX    0.000000  -0.000000  -0.010180  -0.204696   0.051610
   11  C  1 YY    0.000000  -0.000000   0.004172   0.207196   0.151489
   12  C  1 ZZ    0.000000  -0.000000   0.006008  -0.002500  -0.203099
   13  C  1 XY    0.000000  -0.000000  -0.371855   0.011413  -0.138871
   14  C  1 XZ    0.013065   0.336450   0.000000   0.000000   0.000000
   15  C  1 YZ    0.337431   0.013698   0.000000   0.000000   0.000000
[...]
   37  C  3  X    2.647845  -2.841172  -0.595832   1.614544  -1.349119
   38  C  3  Y   -1.286505  -2.231866  -0.802744   0.205863   1.659231
   39  C  3  Z   -0.000000  -0.000000   0.000000   0.000000   0.000000
   40  C  3 XX    0.199306  -0.119306   0.066695   0.484844   0.192807
   41  C  3 YY   -0.067268   0.107866   0.411422   0.043044   0.166432
   42  C  3 ZZ   -0.132038   0.011440  -0.478117  -0.527888  -0.359239
   43  C  3 XY    0.200795   0.000780  -0.361981  -0.332869  -0.680495
   44  C  3 XZ   -0.000000  -0.000000  -0.000000   0.000000   0.000000
   45  C  3 YZ    0.000000   0.000000   0.000000  -0.000000  -0.000000
   46  C  4  S    0.300088  -0.007315  -0.235273   0.321867  -0.031046
   47  C  4  S    0.572137  -0.010537  -0.365656   0.525058  -0.134568
   48  C  4  S   -1.803408   0.438921   3.257865  -3.882869  -0.167263
   49  C  4  X    0.207982   0.078985   0.253181  -0.064074  -0.089253
   50  C  4  Y   -0.020514  -0.071634   0.100616  -0.283414  -0.084738
   51  C  4  Z   -0.000000   0.000000   0.000000  -0.000000  -0.000000
   52  C  4  X    2.647845  -2.841172   0.595832   1.614544  -1.349119
   53  C  4  Y    1.286505   2.231866  -0.802744  -0.205863  -1.659231
   54  C  4  Z    0.000000   0.000000  -0.000000  -0.000000  -0.000000
   55  C  4 XX   -0.199306   0.119306   0.066695  -0.484844  -0.192807
   56  C  4 YY    0.067268  -0.107866   0.411422  -0.043044  -0.166432
   57  C  4 ZZ    0.132038  -0.011440  -0.478117   0.527888   0.359239
   58  C  4 XY    0.200795   0.000780   0.361981  -0.332869  -0.680495
   59  C  4 XZ   -0.000000  -0.000000  -0.000000   0.000000   0.000000
   60  C  4 YZ   -0.000000  -0.000000  -0.000000   0.000000   0.000000
   61  H  5  S    0.313767   0.013552   0.573926  -0.509751   0.785135
   62  H  5  S    1.732489   0.219778   0.877544  -0.390911   1.804594
   63  H  5  X    0.243420  -0.341131   0.409550  -0.507472   0.551680
   64  H  5  Y    0.414541   0.358029   0.545185  -0.337120   0.517724
   65  H  5  Z    0.000000   0.000000   0.000000  -0.000000  -0.000000
   66  H  6  S   -0.313767  -0.013552   0.573926   0.509751  -0.785135
   67  H  6  S   -1.732489  -0.219778   0.877544   0.390911  -1.804594
   68  H  6  X    0.243420  -0.341131  -0.409550  -0.507472   0.551680
   69  H  6  Y   -0.414541  -0.358029   0.545185   0.337120  -0.517724
   70  H  6  Z   -0.000000  -0.000000  -0.000000   0.000000   0.000000
   71  H  7  S    0.313767  -0.013552  -0.573926  -0.509751  -0.785135
   72  H  7  S    1.732489  -0.219778  -0.877544  -0.390911  -1.804594
   73  H  7  X    0.243420   0.341131  -0.409550  -0.507472  -0.551680
   74  H  7  Y   -0.414541   0.358029   0.545185   0.337120   0.517724
   75  H  7  Z   -0.000000  -0.000000  -0.000000   0.000000   0.000000
   76  H  8  S   -0.313767   0.013552  -0.573926   0.509751   0.785135
   77  H  8  S   -1.732489   0.219778  -0.877544   0.390911   1.804594
   78  H  8  X    0.243420   0.341131   0.409550  -0.507472  -0.551680
   79  H  8  Y    0.414541  -0.358029   0.545185  -0.337120  -0.517724
   80  H  8  Z    0.000000   0.000000   0.000000  -0.000000  -0.000000

                     76
                    0.0000
                     B1G 
    1  C  1  S   -0.663801
    2  C  1  S   -1.070841
    3  C  1  S   17.879419
    4  C  1  X   -0.003118
    5  C  1  Y   -0.004900
    6  C  1  Z    0.000000
    7  C  1  X    7.510990
    8  C  1  Y    7.673689
    9  C  1  Z   -0.000000
   10  C  1 XX    0.344105
   11  C  1 YY    0.359527
   12  C  1 ZZ   -0.703632
   13  C  1 XY    0.474759
   14  C  1 XZ   -0.000000
   15  C  1 YZ   -0.000000
   16  C  2  S    0.663801
   17  C  2  S    1.070841
   18  C  2  S  -17.879419
   19  C  2  X   -0.003118
   20  C  2  Y    0.004900
   21  C  2  Z   -0.000000
   22  C  2  X    7.510990
   23  C  2  Y   -7.673689
   24  C  2  Z    0.000000
   25  C  2 XX   -0.344105
   26  C  2 YY   -0.359527
   27  C  2 ZZ    0.703632
   28  C  2 XY    0.474759
   29  C  2 XZ   -0.000000
   30  C  2 YZ    0.000000
   31  C  3  S    0.663801
   32  C  3  S    1.070841
   33  C  3  S  -17.879419
   34  C  3  X    0.003118
   35  C  3  Y   -0.004900
   36  C  3  Z   -0.000000
   37  C  3  X   -7.510990
   38  C  3  Y    7.673689
   39  C  3  Z    0.000000
   40  C  3 XX   -0.344105
   41  C  3 YY   -0.359527
   42  C  3 ZZ    0.703632
   43  C  3 XY    0.474759
   44  C  3 XZ    0.000000
   45  C  3 YZ   -0.000000
   46  C  4  S   -0.663801
   47  C  4  S   -1.070841
   48  C  4  S   17.879419
   49  C  4  X    0.003118
   50  C  4  Y    0.004900
   51  C  4  Z    0.000000
   52  C  4  X   -7.510990
   53  C  4  Y   -7.673689
   54  C  4  Z   -0.000000
   55  C  4 XX    0.344105
   56  C  4 YY    0.359527
   57  C  4 ZZ   -0.703632
   58  C  4 XY    0.474759
   59  C  4 XZ    0.000000
   60  C  4 YZ    0.000000
   61  H  5  S   -0.150373
   62  H  5  S    2.789089
   63  H  5  X   -0.402126
   64  H  5  Y   -0.418484
   65  H  5  Z    0.000000
   66  H  6  S    0.150373
   67  H  6  S   -2.789089
   68  H  6  X   -0.402126
   69  H  6  Y    0.418484
   70  H  6  Z    0.000000
   71  H  7  S    0.150373
   72  H  7  S   -2.789089
   73  H  7  X    0.402126
   74  H  7  Y   -0.418484
   75  H  7  Z   -0.000000
   76  H  8  S   -0.150373
   77  H  8  S    2.789089
   78  H  8  X    0.402126
   79  H  8  Y    0.418484
   80  H  8  Z   -0.000000
 ... END OF RIGHT EOM NATURAL ORBITALS ...
 ..... DONE WITH EOM-CCSD .....
 STEP CPU TIME =    12.32 TOTAL CPU TIME =         29.7 (      0.5 MIN)
 TOTAL WALL CLOCK TIME=         29.8 SECONDS, CPU UTILIZATION IS    99.73%

 EOM-CCSD HAS FINISHED, NOW ENTERING THE MMCC23 PROGRAM
 TO COMPUTE CR-EOMCCSD(T) AND/OR CR-CC(2,3) TRIPLES CORRECTIONS

 ------------------     -------------------
 CR-CC(2,3) PROGRAM     M. WLOCH, P.PIECUCH
 ------------------     -------------------

 A TOTAL OF  1 STATES WILL BE TRIPLES CORRECTED

 BEGINNING TRIPLES CORRECTION FOR STATE  0
 MEMORY REQUIRED FOR   XINTQUA=     5836928
 MEMORY REQUIRED FOR  XINTRIPL=     5775548
 MEMORY REQUIRED FOR   XINTRIH=     3577648
 MEMORY REQUIRED FOR   DEN12CR=      770040 MTRIP= 1
 MEMORY REQUIRED FOR XT3WT2NNN=    10073784 MTRIP= 1
 LAMBDA CORRECTION FOR ROOT NO.                    0
 THE LARGEST L1 AND L2 AMPLITUDES FOR THIS ROOT ARE
 L2=  -0.2460738032 FOR I,J -> A,B =   10   10   11   11

 GROUND STATE CCSD TOTAL ENERGY=                               -154.1840230529

 MAIN RESULTS: CR-CC(2,3) = CR-CC(2,3),D = CR-CCSD(T)_L CALCULATIONS
 [SEE P. PIECUCH AND M. WLOCH, J. CHEM. PHYS. 123, 224105 (2005);
 P. PIECUCH, M. WLOCH, J.R. GOUR, AND A. KINAL, CHEM. PHYS. LETT.
 418, 463 (2005)]

 GROUND STATE CR-CC(2,3),A CORRECTION -0.027900, TOTAL E=     -154.2119226094
 GROUND STATE CR-CC(2,3),B CORRECTION -0.025932, TOTAL E=     -154.2099552002
 GROUND STATE CR-CC(2,3),C CORRECTION -0.033473, TOTAL E=     -154.2174960725
 GROUND STATE CR-CC(2,3),D CORRECTION -0.033343, TOTAL E=     -154.2173659561

 CR-CC(2,3),A ENERGY IS IDENTICAL TO THE CCSD(2)_T ENERGY.
 CR-CC(2,3),D ENERGY IS IDENTICAL TO COMPLETE CR-CC(2,3) ENERGY (CR-CCSD(T)_L)

 ADDITIONAL RESULTS: GROUND-STATE CR-EOMCCSD(T) CALCULATIONS
 [SEE K. KOWALSKI AND P. PIECUCH, J. CHEM. PHYS. 120, 1715 (2004)]

 GROUND STATE CR-CCSD(T)IA  CORRECTION -0.020086, TOTAL E=     -154.2041095406
 GROUND STATE CR-CCSD(T)IB  CORRECTION -0.018598, TOTAL E=     -154.2026215219
 GROUND STATE CR-CCSD(T)IC  CORRECTION -0.024281, TOTAL E=     -154.2083040466
 GROUND STATE CR-CCSD(T)ID  CORRECTION -0.024183, TOTAL E=     -154.2082062898
 GROUND STATE CR-CCSD(T)IIA CORRECTION -0.021038, TOTAL E=     -154.2050613569
 GROUND STATE CR-CCSD(T)IIB CORRECTION -0.019548, TOTAL E=     -154.2035710448
 GROUND STATE CR-CCSD(T)IIC CORRECTION -0.025239, TOTAL E=     -154.2092623244
 GROUND STATE CR-CCSD(T)IID CORRECTION -0.025141, TOTAL E=     -154.2091644177

              SUMMARY OF CR-CC(2,3) OR CR-CCSD(T)_L CALCULATIONS

 THE MOST ACCURATE ENERGETICS IS PROVIDED BY CR-CC(2,3) = CR-CC(2,3),D

 CCSD                       ENERGY:     -154.1840230529   CORR.E=  -0.5813875517
 CR-CC(2,3),A OR CCSD(2)_T  ENERGY:     -154.2119226094   CORR.E=  -0.6092871082
 CR-CC(2,3) OR CR-CCSD(T)_L ENERGY:     -154.2173659561   CORR.E=  -0.6147304549
 CPU TIME FOR TRIPLES CORRECTION FOR THIS STATE=      14.0

 .... DONE WITH MMCC(2,3) TRIPLES CORRECTIONS ....
 STEP CPU TIME =    14.04 TOTAL CPU TIME =         43.8 (      0.7 MIN)
 TOTAL WALL CLOCK TIME=         43.9 SECONDS, CPU UTILIZATION IS    99.73%

     --------------------------------------
     CCSD PROPERTIES...FOR THE GROUND STATE
      USING THE EXPECTATION VALUE DENSITY
     --------------------------------------

          ---------------------------------------
          MULLIKEN AND LOWDIN POPULATION ANALYSES
          ---------------------------------------

               ----- POPULATIONS IN EACH AO -----
                             MULLIKEN      LOWDIN
              1  C  1  S      2.00391     1.88092
              2  C  1  S      0.67518     0.48938
              3  C  1  S      0.52509     0.28994
              4  C  1  X      0.70590     0.62196
              5  C  1  Y      0.69888     0.61620
              6  C  1  Z      0.56358     0.51833
              7  C  1  X      0.19068     0.33777
              8  C  1  Y      0.16602     0.33194
              9  C  1  Z      0.40913     0.41640
             10  C  1 XX      0.00829     0.18367
             11  C  1 YY      0.02784     0.18262
             12  C  1 ZZ      0.02550     0.09741
             13  C  1 XY      0.01240     0.06723
             14  C  1 XZ      0.01289     0.02107
             15  C  1 YZ      0.00000     0.02827
             16  C  2  S      2.00391     1.88092
             17  C  2  S      0.67518     0.48938
             18  C  2  S      0.52509     0.28994
             19  C  2  X      0.70590     0.62196
             20  C  2  Y      0.69888     0.61620
             21  C  2  Z      0.56358     0.51833
             22  C  2  X      0.19068     0.33777
             23  C  2  Y      0.16602     0.33194
             24  C  2  Z      0.40913     0.41640
             25  C  2 XX      0.00829     0.18367
             26  C  2 YY      0.02784     0.18262
             27  C  2 ZZ      0.02550     0.09741
             28  C  2 XY      0.01240     0.06723
             29  C  2 XZ      0.01289     0.02107
             30  C  2 YZ      0.00000     0.02827
             31  C  3  S      2.00391     1.88092
             32  C  3  S      0.67518     0.48938
             33  C  3  S      0.52509     0.28994
             34  C  3  X      0.70590     0.62196
             35  C  3  Y      0.69888     0.61620
             36  C  3  Z      0.56358     0.51833
             37  C  3  X      0.19068     0.33777
             38  C  3  Y      0.16602     0.33194
             39  C  3  Z      0.40913     0.41640
             40  C  3 XX      0.00829     0.18367
             41  C  3 YY      0.02784     0.18262
             42  C  3 ZZ      0.02550     0.09741
             43  C  3 XY      0.01240     0.06723
             44  C  3 XZ      0.01289     0.02107
             45  C  3 YZ      0.00000     0.02827
             46  C  4  S      2.00391     1.88092
             47  C  4  S      0.67518     0.48938
             48  C  4  S      0.52509     0.28994
             49  C  4  X      0.70590     0.62196
             50  C  4  Y      0.69888     0.61620
             51  C  4  Z      0.56358     0.51833
             52  C  4  X      0.19068     0.33777
             53  C  4  Y      0.16602     0.33194
             54  C  4  Z      0.40913     0.41640
             55  C  4 XX      0.00829     0.18367
             56  C  4 YY      0.02784     0.18262
             57  C  4 ZZ      0.02550     0.09741
             58  C  4 XY      0.01240     0.06723
             59  C  4 XZ      0.01289     0.02107
             60  C  4 YZ      0.00000     0.02827
             61  H  5  S      0.73521     0.57429
             62  H  5  S      0.20515     0.26102
             63  H  5  X      0.01272     0.02901
             64  H  5  Y      0.01347     0.03048
             65  H  5  Z      0.00816     0.02209
             66  H  6  S      0.73521     0.57429
             67  H  6  S      0.20515     0.26102
             68  H  6  X      0.01272     0.02901
             69  H  6  Y      0.01347     0.03048
             70  H  6  Z      0.00816     0.02209
             71  H  7  S      0.73521     0.57429
             72  H  7  S      0.20515     0.26102
             73  H  7  X      0.01272     0.02901
             74  H  7  Y      0.01347     0.03048
             75  H  7  Z      0.00816     0.02209
             76  H  8  S      0.73521     0.57429
             77  H  8  S      0.20515     0.26102
             78  H  8  X      0.01272     0.02901
             79  H  8  Y      0.01347     0.03048
             80  H  8  Z      0.00816     0.02209

          ----- MULLIKEN ATOMIC OVERLAP POPULATIONS -----
          (OFF-DIAGONAL ELEMENTS NEED TO BE MULTIPLIED BY 2)

             1           2           3           4           5

    1    5.1703735
    2    0.5029766   5.1703735
    3    0.1641427  -0.1437969   5.1703735
    4   -0.1437969   0.1641427   0.5029766   5.1703735
    5    0.3935190  -0.0325141  -0.0402875   0.0108751   0.6458686
    6   -0.0325141   0.3935190   0.0108751  -0.0402875  -0.0012297
    7   -0.0402875   0.0108751   0.3935190  -0.0325141  -0.0010588
    8    0.0108751  -0.0402875  -0.0325141   0.3935190  -0.0004609

             6           7           8

    6    0.6458686
    7   -0.0004609   0.6458686
    8   -0.0010588  -0.0012297   0.6458686

          TOTAL MULLIKEN AND LOWDIN ATOMIC POPULATIONS
       ATOM         MULL.POP.    CHARGE          LOW.POP.     CHARGE
    1 C             6.025288   -0.025288         6.083116   -0.083116
    2 C             6.025288   -0.025288         6.083116   -0.083116
    3 C             6.025288   -0.025288         6.083116   -0.083116
    4 C             6.025288   -0.025288         6.083116   -0.083116
    5 H             0.974712    0.025288         0.916884    0.083116
    6 H             0.974712    0.025288         0.916884    0.083116
    7 H             0.974712    0.025288         0.916884    0.083116
    8 H             0.974712    0.025288         0.916884    0.083116

          MULLIKEN SPHERICAL HARMONIC POPULATIONS
       ATOM           S       P       D      F      G      H      I    TOTAL
    1 C             3.20    2.73    0.09   0.00   0.00   0.00   0.00    6.03
    2 C             3.20    2.73    0.09   0.00   0.00   0.00   0.00    6.03
    3 C             3.20    2.73    0.09   0.00   0.00   0.00   0.00    6.03
    4 C             3.20    2.73    0.09   0.00   0.00   0.00   0.00    6.03
    5 H             0.94    0.03    0.00   0.00   0.00   0.00   0.00    0.97
    6 H             0.94    0.03    0.00   0.00   0.00   0.00   0.00    0.97
    7 H             0.94    0.03    0.00   0.00   0.00   0.00   0.00    0.97
    8 H             0.94    0.03    0.00   0.00   0.00   0.00   0.00    0.97

          -------------------------------
          BOND ORDER AND VALENCE ANALYSIS     BOND ORDER THRESHOLD=0.050
          -------------------------------

                   BOND                       BOND                       BOND
  ATOM PAIR DIST  ORDER      ATOM PAIR DIST  ORDER      ATOM PAIR DIST  ORDER
    1   2  1.461  1.615        1   3  1.461  0.870        1   5  1.092  0.943
    2   4  1.461  0.870        2   6  1.092  0.943        3   4  1.461  1.615
    3   7  1.092  0.943        4   8  1.092  0.943

                       TOTAL       BONDED        FREE
      ATOM            VALENCE     VALENCE     VALENCE
    1 C                 3.919       3.383       0.536
    2 C                 3.919       3.383       0.536
    3 C                 3.919       3.383       0.536
    4 C                 3.919       3.383       0.536
    5 H                 1.007       0.940       0.067
    6 H                 1.007       0.940       0.067
    7 H                 1.007       0.940       0.067
    8 H                 1.007       0.940       0.067

          ---------------------
          ELECTROSTATIC MOMENTS
          ---------------------

 POINT   1           X           Y           Z (BOHR)    CHARGE
                 0.000000    0.000000    0.000000        0.00 (A.U.)
         DX          DY          DZ         /D/  (DEBYE)
    -0.000000   -0.000000    0.000000    0.000000
 ...... END OF PROPERTY EVALUATION ......
 STEP CPU TIME =     0.02 TOTAL CPU TIME =         43.8 (      0.7 MIN)
 TOTAL WALL CLOCK TIME=         43.9 SECONDS, CPU UTILIZATION IS    99.73%
             18754562  WORDS OF DYNAMIC MEMORY USED
 EXECUTION OF GAMESS TERMINATED NORMALLY Thu Jun 11 15:19:46 2020
 DDI: 263640 bytes (0.3 MB / 0 MWords) used by master data server.

 ----------------------------------------
 CPU timing information for all processes
 ========================================
 0: 38.577 + 5.225 = 43.803
 ----------------------------------------
 ddikick.x: exited gracefully.
----- accounting info -----
Files used on the master node stochastic.cem.msu.edu were:
-rw-r--r-- 1 gururang piecuch     98967 Jun 11 15:19 /scratch/gururang/square-d2h.F05
-rw-r--r-- 1 gururang piecuch   8640768 Jun 11 15:19 /scratch/gururang/square-d2h.F08
-rw-r--r-- 1 gururang piecuch   5601528 Jun 11 15:19 /scratch/gururang/square-d2h.F09
-rw-r--r-- 1 gururang piecuch  54067200 Jun 11 15:19 /scratch/gururang/square-d2h.F10
-rw-r--r-- 1 gururang piecuch   1165824 Jun 11 15:19 /scratch/gururang/square-d2h.F70
-rw-r--r-- 1 gururang piecuch  30801600 Jun 11 15:19 /scratch/gururang/square-d2h.F71
-rw-r--r-- 1 gururang piecuch 337472448 Jun 11 15:19 /scratch/gururang/square-d2h.F72
-rw-r--r-- 1 gururang piecuch     34720 Jun 11 15:19 /scratch/gururang/square-d2h.F73
-rw-r--r-- 1 gururang piecuch  43052800 Jun 11 15:19 /scratch/gururang/square-d2h.F74
-rw-r--r-- 1 gururang piecuch         0 Jun 11 15:19 /scratch/gururang/square-d2h.F75
-rw-r--r-- 1 gururang piecuch   2480000 Jun 11 15:19 /scratch/gururang/square-d2h.F76
-rw-r--r-- 1 gururang piecuch  95331200 Jun 11 15:19 /scratch/gururang/square-d2h.F77
-rw-r--r-- 1 gururang piecuch         0 Jun 11 15:19 /scratch/gururang/square-d2h.F80
-rw-r--r-- 1 gururang piecuch         0 Jun 11 15:19 /scratch/gururang/square-d2h.F81
-rw-r--r-- 1 gururang piecuch   3075200 Jun 11 15:19 /scratch/gururang/square-d2h.F82
-rw-r--r-- 1 gururang piecuch         0 Jun 11 15:19 /scratch/gururang/square-d2h.F83
-rw-r--r-- 1 gururang piecuch         0 Jun 11 15:19 /scratch/gururang/square-d2h.F84
-rw-r--r-- 1 gururang piecuch    240000 Jun 11 15:19 /scratch/gururang/square-d2h.F85
-rw-r--r-- 1 gururang piecuch 118210688 Jun 11 15:19 /scratch/gururang/square-d2h.F86
-rw-r--r-- 1 gururang piecuch         0 Jun 11 15:19 /scratch/gururang/square-d2h.F87
-rw-r--r-- 1 gururang piecuch         0 Jun 11 15:19 /scratch/gururang/square-d2h.F88
-rw-r--r-- 1 gururang piecuch   3080160 Jun 11 15:19 /scratch/gururang/square-d2h.F89
-rw-r--r-- 1 gururang piecuch    492032 Jun 11 15:19 /scratch/gururang/square-d2h.F90
-rw-r--r-- 1 gururang piecuch   1230080 Jun 11 15:19 /scratch/gururang/square-d2h.F91
-rw-r--r-- 1 gururang piecuch         0 Jun 11 15:19 /scratch/gururang/square-d2h.F92
-rw-r--r-- 1 gururang piecuch         0 Jun 11 15:19 /scratch/gururang/square-d2h.F93
-rw-r--r-- 1 gururang piecuch         0 Jun 11 15:19 /scratch/gururang/square-d2h.F94
-rw-r--r-- 1 gururang piecuch     24800 Jun 11 15:19 /scratch/gururang/square-d2h.F95
-rw-r--r-- 1 gururang piecuch  15376000 Jun 11 15:19 /scratch/gururang/square-d2h.F96
-rw-r--r-- 1 gururang piecuch   6160320 Jun 11 15:19 /scratch/gururang/square-d2h.F97
-rw-r--r-- 1 gururang piecuch     24800 Jun 11 15:19 /scratch/gururang/square-d2h.F98
-rw-r--r-- 1 gururang piecuch  15376000 Jun 11 15:19 /scratch/gururang/square-d2h.F99
Thu Jun 11 15:19:49 EDT 2020
0.109u 0.235s 0:47.26 0.6%	0+0k 0+200io 0pf+0w
